      35
 i =       11, E =      -854.3817441062
 Hg        10.1120498979       15.6424976050       10.1233914780
 Hg        10.1373073272        7.3513902555       12.8802113162
 Hg        13.2104108502       13.2199730355        9.7779886690
 Hg        15.6454983750       12.8859704980       12.8665554405
 Hg         7.3475744472       12.8633174963       10.1310103526
 Hg        12.8662359318       15.6502672318       12.8694299823
 Hg        12.8704127480       10.1250928795        7.3511296363
 Hg         7.3582407654       10.1156356205       12.8836819548
 Hg         9.7811091200       13.2145517560       13.2187946780
 Hg        13.2231341737        9.7881238525       13.2151157912
 Hg        10.1138971407       12.8685007066        7.3534598789
 Hg        10.1355339194       10.1253059961       15.6504224452
 Hg        12.8788606690       12.8810714566       15.6440299094
 Hg         9.7826608474        9.7771108311        9.7854529699
 Hg        12.8828247584        7.3557152028       10.1253105482
 Hg        15.6475600808       10.1348126777       10.1180503011
 Te        11.4991665643       11.4999346981       11.4991415672
 Te        11.2793380068       15.0015946244       14.9983917958
 Te         8.0049846158       11.7120655459       15.0060869794
 Te        11.7319331372        8.0031820633       15.0023840207
 Te        11.7030032868       14.9977682951        7.9962023199
 Te        11.2843162853        7.9963116430        8.0024423675
 Te         7.9915614165       14.9917182401       11.7207511318
 Te        14.9930162925       11.7236792523        7.9923971351
 Te        14.9906109728       15.0083613208       11.2734623399
 Te        15.0063215456       11.2927820606       14.9938232761
 Te         8.0074670081        7.9913578803       11.2907030844
 Te        15.0088656414        8.0093584064       11.7139695761
 Te         7.9934986599       11.2712889618        8.0049517494
 Cl        11.4890963836       11.4952172402        5.4919815689
 Cl         5.4927731849       11.4856209269       11.5100629718
 Cl        11.5143120988        5.4934422624       11.5043249952
 Cl        11.4851766120       17.5065506705       11.4955396401
 Cl        17.5069093992       11.5149866440       11.4889407091
 Cl        11.5101179047       11.5041810246       17.5078360281
