      771
 i =       42, E =    -21668.5233619413
 Cd        20.9940362821       27.0571738816       20.9884432430
 Cd        24.0401250966       30.1141059087       20.9410464919
 Cd        27.0488236499       33.1769218664       20.8005709011
 Cd        30.0288707665       36.1906232505       20.5973984981
 Cd        14.6302260882       11.6029144523       17.6083091970
 Cd        35.8085959222       23.3131411878       32.9364672640
 Cd         8.7946229646       14.9373025848       20.6273273009
 Cd        11.8153470401       17.9186800307       20.8037332055
 Cd        14.8803430162       20.9763106709       20.8759164765
 Cd        17.9361812933       24.0038553469       20.9778639361
 Cd        24.0114146335       27.0565925315       24.0090648880
 Cd        27.0420555487       30.1131978289       23.9274009801
 Cd        30.0186357304       33.1430340620       23.7139754998
 Cd        32.8705674293       35.8935249151       23.1796384087
 Cd        24.3204395061       30.1256215848        8.7933339199
 Cd        17.7720454803       14.7624931549       17.7602473602
 Cd         9.0834927985       12.1399265700       23.2907405195
 Cd        11.8542372750       14.9198702360       23.7477832284
 Cd        14.8983205448       17.9862652057       23.8385827043
 Cd        17.9416305283       20.9872050972       23.9656285690
 Cd        20.9672241001       24.0277440944       24.0327452229
 Cd        27.0122905922       26.9870135532       26.9936965766
 Cd        30.0220103997       30.0424055211       26.9048282110
 Cd        32.8377897635       32.9190273306       26.5393041079
 Cd        20.8986603324       17.8809635074       17.8460911564
 Cd        14.7922003360       20.7972166130       14.7404203813
 Cd        11.7359680590       12.1447279137       27.1334390785
 Cd        15.0542921795       15.0663651900       26.7630759870
 Cd        18.0143913869       18.0189993469       26.9511807173
 Cd        21.0067347061       20.9784497680       27.0461817634
 Cd        24.0183546604       23.9884817120       27.0634813263
 Cd        30.0072304749       27.0076030050       30.1183165353
 Cd        32.8428123257       29.7718290453       29.8634836827
 Cd        14.9226878374       36.1503074701       24.4217089077
 Cd        35.8880690376       26.5268792285       29.7283229713
 Cd        24.0875929044       14.8788764007       24.0246335609
 Cd        15.3559926753       12.1344800086       29.5685457787
 Cd        18.1730072446       15.0497532615       29.8855120831
 Cd        21.1245429518       17.9406161577       30.0644682761
 Cd        24.0871873278       20.9153744033       30.1086033510
 Cd        27.0634494905       23.9184118969       30.1046192184
 Cd        32.7835105918       26.7090118977       32.9045199806
 Cd        30.0339469550       14.9530393847       18.0299925823
 Cd        27.1431249611       17.8655839086       24.0896732827
 Cd        33.1569775153       20.8420966023       27.0934035879
 Cd        27.0771866383       20.9827773922       20.9715714054
 Cd        23.7900909208        8.7506948072       18.0157809569
 Cd        26.9098467903       11.8596918748       18.0406499236
 Cd        17.8327360774       12.0886369270       33.1885031438
 Cd        21.2001128036       14.8817639663       33.0800562442
 Cd        24.1623424884       17.8471353472       33.1579275861
 Cd        27.1078156784       20.8080929899       33.1625729801
 Cd        30.0639761624       23.7337232187       33.1185709854
 Cd        24.0858011187       24.0589810075        8.7250189652
 Cd        35.8769700033       29.7568336196       26.5177839460
 Cd        24.3245607485       14.8540273254       36.1426661653
 Cd        27.2295098852       17.7177799138       36.1752397729
 Cd        30.1062857974       20.6214621239       36.1565638888
 Cd        32.9268641559       23.2485111132       35.8597903558
 Cd        23.7615891925       11.9003551526       14.8921657820
 Cd        24.0097941236       21.0071230070       11.8079422532
 Cd        14.8154884778       11.9393128067       23.8228777464
 Cd        30.1064984629       24.3376105374        8.7921088926
 Cd        33.3858994260       30.3585891005       17.5761302407
 Cd        17.9136202388       20.8632843310       11.8146837009
 Cd        20.4347171502       11.6615002065       11.6154893323
 Cd        26.9626602902       14.9688907821       14.8950499663
 Cd        21.0478553740       23.9976346740       11.7996495931
 Cd        14.6354321228       14.6460666245       14.5876137923
 Cd        32.9217811687        9.1099921028       21.7575645695
 Cd        24.0271572959       17.9290779085       20.9641426593
 Cd        26.9817238977       18.0190385449       11.8589813631
 Cd        27.2200100967       17.7603099232       30.2236640472
 Cd        33.1545303903       24.1730053371       17.8611318645
 Cd        30.3401163125       27.4006400573       11.5628418262
 Cd        18.0904392225       11.8458508160       26.8465188943
 Cd        33.0861085865       14.9052703777       21.2303762032
 Cd        36.2141344072       18.0447089470       21.1583891249
 Cd        20.9710542927       20.9625822141       20.9306213339
 Cd        17.7119152111        8.8239819605       17.7753548112
 Cd        15.1208438411        9.0981222365       26.4412717747
 Cd        17.7785102327       17.7976524466       14.7345139831
 Cd        20.6690344638       14.8950480421        8.7974982463
 Cd        11.5567212990       14.6934675727       17.6011619921
 Cd        17.8690521499       17.8810940705       20.8394320961
 Cd        30.2101646650       24.2501453225       14.7506687042
 Cd        27.1616754623        8.7969573278       27.2323763648
 Cd        30.1921097352       30.2396752250       20.7340476913
 Cd        33.1002413380       18.0863585483       18.0531624894
 Cd        30.1197765885       20.9481248847       24.0483201995
 Cd        20.7534762177       14.7889390488       14.7529048959
 Cd        30.0774946724       21.2286446773       11.8439997935
 Cd        18.0844547088       23.8376921620        8.7378454255
 Cd        12.2306454876       26.7737012605       12.0723400181
 Cd        15.1775210420       30.3224016920       11.7363523870
 Cd        17.8047542572       32.8457365232       11.7453011891
 Cd        21.4459290808       35.7347379959       11.9924661049
 Cd        14.7424616336       17.7929344841       17.7462564198
 Cd        24.1974426149       30.2190338827       14.7443210025
 Cd        27.3145783338       33.4069545756       14.6220534712
 Cd        24.0478535620       24.0349896916       20.9501136619
 Cd         9.1934506986       23.3990612681       12.0138715828
 Cd        14.9656402275       27.0785019182       14.8397925452
 Cd        18.0959970253       29.9714684031       15.0322896320
 Cd        21.0820341966       33.0700346067       14.7975171662
 Cd        24.2005716870       36.1291494555       14.8005427902
 Cd         8.8589685241       20.7415756458       14.8357561676
 Cd        11.9198551769       23.8436558586       14.8710420221
 Cd        18.0036496157       26.9824173567       17.9991379458
 Cd        21.0736804451       30.0985094813       17.9512905119
 Cd        24.0824490916       33.1654873300       17.8277918059
 Cd        27.1371338436       36.1884582713       17.6997079913
 Cd        36.2265378830       24.0871517369       20.9111287085
 Cd         8.7989606627       17.8292207774       17.7141446193
 Cd        11.8353917811       20.8897158592       17.8443689587
 Cd        14.8930761411       23.9893544795       17.8732229250
 Cd        20.9191820060       30.0958627520       24.0821547363
 Cd        23.9278192503       33.1665802834       23.9445006439
 Cd        26.8538205506       36.2591381221       23.7607308641
 Cd        36.2087331157       23.8358778404       26.9351185332
 Cd         8.7623512255       18.0660601269       23.7895352486
 Cd        11.8267750034       21.0344081123       23.9449478921
 Cd        14.8799010998       24.0168478130       24.0856873119
 Cd        17.8741184003       27.0838206287       24.1213910368
 Cd        23.8797208194       30.0610274541       27.0459142372
 Cd        26.8559995711       33.1419549085       26.9009347105
 Cd        29.6284366681       35.9738962280       26.4574682842
 Cd        30.1086222345       23.9469545057       27.0711192624
 Cd        11.5907241656       11.6684360595       20.4332919393
 Cd         9.0058423395       15.2811937965       26.5362539116
 Cd        11.8955046771       18.0254040042       26.9121564812
 Cd        14.8890480606       20.9903366564       27.0755505461
 Cd        17.8654727072       24.0407313848       27.1345507327
 Cd        20.8835699633       27.0793161367       27.1365905174
 Cd        26.8405693487       29.9249204854       29.9572122282
 Cd        29.6837200375       32.9065643589       29.6448296151
 Cd        27.0200043148       17.9833427796       17.9553206602
 Cd        21.1197629429       11.9185763116       30.1201428107
 Cd        11.7804993322       14.7068910105       29.8578774436
 Cd        14.8814712156       17.8115967886       30.0837059496
 Cd        17.9047925276       20.9758141372       30.0974371169
 Cd        20.9087341901       23.9923105587       30.1169435921
 Cd        23.8820455992       26.9943866989       30.1035073558
 Cd        29.7913426891       30.2602683700       33.2968900773
 Cd        36.1773139506       27.2353268258       17.7495470154
 Cd        27.0671261777       14.8858762470       21.0482710534
 Cd        33.3938367767       27.3944432482       14.6320772652
 Cd        15.1042463470       14.6547768834       33.1607189414
 Cd        18.0279185107       17.9821444364       33.0780680689
 Cd        20.9967166122       20.9584408953       33.1601105871
 Cd        23.9589886648       23.9317536469       33.1723880958
 Cd        26.9144903404       26.9133211929       33.1380408938
 Cd        33.0888155255       26.9340865875       26.9204621919
 Cd        24.0324309006        8.7326634427       24.0586586775
 Cd        27.0736881662       11.8172518244       24.1660620616
 Cd        18.3987169467       15.1976718188       35.9535960996
 Cd        21.1403897639       17.9690721620       36.2118638526
 Cd        24.0411015692       20.8637659649       36.2244097079
 Cd        26.9208727922       23.7749751044       36.2307472382
 Cd        29.6709630494       26.5063380306       35.9590639413
 Cd         9.1208738703       32.9267820315       21.8305675228
 Cd        33.3396699147       20.4314282741       33.3312311603
 Cd         8.8273048670       30.0831899562       24.4077193597
 Cd        11.6773019429       33.3191071917       24.6148376923
 Cd        30.0244453840       18.0271594855       14.8937171876
 Cd        33.0851891355       21.2306387589       14.8878030082
 Cd        27.0653523337       21.0806716255       14.8782530823
 Cd        27.3805056496       11.5486070514       30.3508688211
 Cd        26.9783095139       21.1492068702        8.7357723053
 Cd        17.9819194599       14.9082880508       23.8563018237
 Cd        36.1451518649       24.3353290668       14.8698805220
 Cd        27.2246365230       27.2375611633        8.7811993635
 Cd        33.4018214313       17.5988189260       30.3376295178
 Cd        36.2091181893       26.9823806220       23.8022984488
 Cd        33.3135918023       33.3859849599       20.3822943957
 Cd        17.8289358608       36.1435389431       27.3114978969
 Cd        23.8558289018       18.0222275523        8.7544713167
 Cd        26.9175381827        8.7464556304       21.1626905409
 Cd        30.0491843642       11.8693888028       21.2329925173
 Cd        36.1428401217       14.8910278008       24.3250238487
 Cd        30.2105432698       20.7433911585       30.2068708835
 Cd        30.3694066428       14.5866448626       30.3604448884
 Cd        30.2046148674       14.7626634430       24.2412121939
 Cd        36.1796868307       17.7761751676       27.2192644913
 Cd        27.1120032627       24.1706904353       11.8055242503
 Cd        30.1136014263       24.0692334607       20.9099392190
 Cd        33.3333184620       24.5646666648       11.6115024977
 Cd        14.6536044682       17.6350297184       11.5557281667
 Cd        18.4734225730        9.0898740360       29.8009896085
 Cd        33.1519995688       27.1301685607       20.8114921416
 Cd        36.2199163111       21.1968342199       18.0203433125
 Cd        12.1452034488       30.3074357660       14.8220925422
 Cd        14.7148452072       32.9096108713       14.9708995931
 Cd        18.2592798725       35.7581893986       15.1071219317
 Cd        33.1613665254       21.0339468915       20.9983716446
 Cd        24.0237484871       20.9873852813       17.9156253396
 Cd         9.1933265506       26.7405860310       15.2006377256
 Cd        15.0392182627       29.9493665080       18.1780326453
 Cd        17.9539482919       33.0860297080       18.0038695584
 Cd        21.0487847672       36.1625725231       17.9331664206
 Cd        30.3345692658       11.5491485207       27.3875925660
 Cd         8.8072316980       23.9259830606       17.9731787787
 Cd        11.9282573202       27.0455959708       17.9733146359
 Cd        17.9612492708       30.0707400030       21.1209173461
 Cd        20.9594821119       33.1647377668       20.9834950504
 Cd        23.9610130217       36.2250207860       20.8504515645
 Cd         8.7683420232       20.9780728787       20.8792973724
 Cd        11.8323665305       24.0223493599       20.9689431797
 Cd        14.8996704725       27.0093837553       21.1228568286
 Cd        20.8827128255       33.1366149673       27.1696864124
 Cd        23.7933597938       36.2019112004       27.0060565185
 Cd        33.1588699556       23.9904167165       23.9551020865
 Cd         8.7825443201       21.1478520370       26.9235002657
 Cd        11.8349040335       24.1014903533       27.1281620031
 Cd        14.7673244081       27.1652988792       27.2341679661
 Cd        17.7854617346       30.2058249881       27.2504971397
 Cd        23.8618703205       33.0192751255       30.1934762597
 Cd        26.4409948993       35.8850339814       29.8879521239
 Cd        23.9240225046       17.9437165817       14.8764220089
 Cd        21.0018095376       24.0111914202       17.9216810143
 Cd        24.1627136635       27.1293079276       11.7954742994
 Cd         9.0942766042       18.4153279934       29.6758913256
 Cd        11.9117543964       21.1356544722       30.0854699896
 Cd        14.7755939805       24.1750244105       30.2266188421
 Cd        17.7797433459       27.1576247073       30.2611389852
 Cd        20.7528532518       30.1889769983       30.2564793210
 Cd        27.1551215403       32.8403285751       33.2509529147
 Cd        23.3037527487       12.0625024398        9.1100706735
 Cd        26.6105906245       15.2694221488        9.0387719825
 Cd        12.1510843252       18.0740846050       32.8047546793
 Cd        14.8910882257       21.1205878498       33.0774734323
 Cd        17.8668528552       24.0789314095       33.1657224339
 Cd        20.8287012527       27.0537471866       33.1830600954
 Cd        23.7876472128       30.0360003289       33.1384959369
 Cd        29.7209727974       18.3806541959        9.0329657492
 Cd        32.9286676193       21.6951378122        9.1044418939
 Cd        24.2393804639       14.7490823852       30.2000101624
 Cd        15.2694241690       18.3451063775       35.8859422172
 Cd        18.0177596821       21.0780184830       36.2118472474
 Cd        20.9062996802       23.9914087682       36.2384126855
 Cd        23.7977142923       26.8989533876       36.2678986559
 Cd        26.5235439005       29.6767529375       36.0399783836
 Cd        14.7984550436        8.8888902936       20.7137957612
 Cd        20.9656726415       20.9259104526        8.7349629891
 Cd        33.3962037799       14.6410079186       27.3836760403
 Cd        21.0900506735       27.0515596359       14.8809273225
 Cd        24.1053555978       27.1301636206       17.8625359750
 Cd        20.6462286541        8.8478648927       14.8812181169
 Cd        27.1218844423       27.1386479449       20.8898938590
 Cd        17.8461539032       11.8344146123       20.8412226455
 Cd        26.6694114862       12.1131296292       12.1034365957
 Cd        30.1001897530       27.0683862247       23.9005775808
 Cd        11.5980062876       17.6647796113       14.6341923558
 Cd        20.8961437100        8.7541055401       20.9048432975
 Cd        30.2275502252       14.7473594140       11.5983918143
 Cd        32.8590403496       18.3219102360       12.0960050853
 Cd        27.2180105224       14.7310587488       27.2143741829
 Cd        27.1319848709       24.1083580294       17.8586911718
 Cd        21.5056629642        9.2526921892       32.9404169955
 Cd        30.2430555400       17.7687800920       27.2138140161
 Cd        21.1450661922        8.7646393557       26.9665264047
 Cd        20.8159828281       11.8307203774       17.8709859679
 Cd        21.0032540929       17.9366688303       23.9584464154
 Cd        35.8275401725       32.9885681570       23.1826952344
 Cd        21.1924651868       26.9750679241        8.7175088758
 Cd        36.1383325194       20.6863014483       30.0941397015
 Cd        27.1776400180       30.2513032845       17.7624084936
 Cd        24.5073952906       11.6063760649       33.3428698707
 Cd        23.2398467373        9.1329714080       12.0146623306
 Cd        24.4848213314       33.3694693044       11.5953527606
 Cd        29.7322008171       12.0717248411       15.1369681662
 Cd        32.9071918023       15.2481351314       15.1286772384
 Cd        35.9165145228       18.4925010325       15.2476915684
 Cd        36.2225509508       20.9393201202       24.0438518324
 Cd        27.3824440630       14.6101866341       33.3862258040
 Cd        30.3478436994       17.5703319612       33.3902116288
 Cd        12.1456063939       32.8696119881       18.5578347396
 Cd        15.2737078973       35.8929738011       18.3947771999
 Cd        30.2218369278       27.2319812049       17.7624389896
 Cd        30.1044573192       21.0665925780       17.9140782889
 Cd        23.7739244087       14.9134394114       11.8493787574
 Cd        33.0832306269       30.1105295191       23.7183006616
 Cd        24.1108461335       11.8197977966       27.1271721136
 Cd         9.1818274388       29.7687984494       18.3239061716
 Cd        14.9481470670       33.1039168158       21.2970773859
 Cd        18.0158742841       36.2107966406       21.1730426162
 Cd        24.0538466588       20.9555972118       24.0230029462
 Cd        23.9393408887       14.8914210141       17.9045471557
 Cd        30.0533999410        8.8035318426       24.3304954490
 Cd        33.3242570493       11.6258349904       24.5613024092
 Cd        17.6072912043       14.6605702478       11.5640567059
 Cd         8.8042277796       26.9994828237       21.1293397011
 Cd        11.8911483447       30.0571472489       21.2938906578
 Cd        17.9132516220       33.1539487095       24.2076577717
 Cd        20.9105729475       36.2222734748       24.0856819136
 Cd        30.2849563666       33.4062591197       17.5665305175
 Cd        14.9527445975       23.7978090941       11.8457466307
 Cd         8.7724782303       24.0782905675       24.0347206244
 Cd        11.8324726684       27.0802874643       24.1883829970
 Cd        14.7974947157       30.1952924778       24.2721336080
 Cd        20.7521578568       36.0657306940       30.2158331315
 Cd        26.4940539429        9.0368377244       15.2382432526
 Cd        32.8500960572       12.1067238349       18.3488597564
 Cd        35.9092901918       15.2645389625       18.4742752970
 Cd        18.0771947869       26.9730539528       11.8452474154
 Cd         8.8575769027       24.2469242226       30.1247414844
 Cd        11.5970543586       27.3126847645       30.3654413591
 Cd        14.6435178385       30.3006028306       30.4166434515
 Cd        17.6306106307       33.3773154980       30.4115396358
 Cd        23.4768260938       35.6676496271       33.0583699229
 Cd        33.0773156708       23.7851894138       30.0806021969
 Cd        24.2458997742        8.8555024928       30.1288212635
 Cd         9.1877425145       21.5878861511       32.9327716369
 Cd        11.6346822048       24.4776250853       33.3822844135
 Cd        14.6490857975       27.3093485297       33.4360552911
 Cd        17.6215060630       30.2766525720       33.4610461491
 Cd        20.4688864799       33.3147033742       33.4484040914
 Cd        17.9893444625        8.7797377228       23.7865779530
 Cd        12.0852000559       23.3292023590        9.1064129360
 Cd        12.0609158234       21.5477940080       35.8115691857
 Cd        14.8793198276       24.2168006530       36.1507582304
 Cd        17.7618579261       27.1396652146       36.2064408912
 Cd        20.6704701502       30.0323695152       36.2087559887
 Cd        15.3433302492       26.5725640409        9.0258773746
 Cd        20.9485056962       20.9606407410       14.8652551210
 Cd         8.8151651469       27.1641067402       27.2652146906
 Cd        14.7635028437       14.7960073898       20.7384536107
 Cd        29.7129024008        9.0384028454       18.4708419077
 Cd        35.8304333844       12.0429733834       21.7514669988
 Cd        21.1913104083       30.0898463875       11.8499950581
 Cd        11.6083879225       30.2819835965       27.4217887618
 Cd        14.6829965048       33.3792559193       27.4481779070
 Cd        21.0366132194       11.8218327118       23.9337608241
 Cd        14.9045967627       20.6867467013        8.7990390567
 Cd        27.0747557874       24.0091443021       23.9953663020
 Cd        36.1437838584       30.1236657230       20.6320468099
 Cd        24.0805399936       24.0706433511       14.8677838454
 Cd        30.3600570745       30.3738153665       14.6078322503
 Cd        17.6012457820       11.6022298663       14.6383054807
 Cd        20.8400667211       17.9011797673       11.8177509469
 Cd        11.6683871049       20.5049766758       11.6179840670
 Cd        17.9436407304       23.9536870614       14.8699642367
 Cd        17.8721866821       20.9099058620       17.8436628041
 Cd        20.9536109580       14.8851335306       20.8929167693
 Cd        21.1131413751       14.8987197526       26.9886669607
 Cd        24.1226232546       17.8630247653       27.0897353417
 Cd        27.1419152739       20.8915214965       27.1111287142
 Cd        30.1071486219       17.9366012383       21.0594654073
 Cd        17.7784338981       17.7843258833        8.7892503660
 Cd        18.4407069990       29.7337844432        8.9550407303
 Cd        27.2120357679       27.2334102964       14.7342759981
 Cd        23.9645825038       11.8212039561       20.9885654982
 Cd        33.1568977711       17.8874943164       24.1527542166
 Cd        27.3647070812       30.3582442558       11.5493249510
 Cd        35.8362461092       21.7469704016       12.0157268743
 Cd        21.6252568205       32.9095044390        9.0998028307
 Cd        11.9678703499        9.3220375434       23.4603426759
 Cd        23.3328673781       32.8290875291       35.9159018203
 Cd        21.6612972121       12.0696657996       35.8383296150
 Cd        12.0780990845       35.8679631147       21.8303214466
 Se        31.5885892663       16.4112252082       13.2773177333
 Se        13.2074075626       19.2644520233       10.0012255437
 Se        13.1840905343       16.2758539298       13.1611639613
 Se        34.7738295695       31.7465627283       25.3561683182
 Se        31.7846188568       22.6523037132       13.1734137481
 Se        13.3300575485       34.8203698830       19.6942454613
 Se        19.4712050474       25.5405537733       16.3589683906
 Se        28.7013138340       13.1791753688       25.6511543889
 Se        22.5232019411       22.5032165541       16.3576385700
 Se        10.0476439526       19.2810409770       13.1635682415
 Se        16.3720836205       19.4574211304       25.4942851320
 Se        31.7053734604       16.3596276562       19.4601756953
 Se        25.5738234340       13.2849577937       22.4856090782
 Se        31.6928046776       25.5741365472       22.4467409446
 Se        19.4229004185       22.5008782514       25.5667901080
 Se        19.3716958447       10.3664109566       31.8016451399
 Se        19.5128048806       10.1974237149       25.4376659518
 Se        16.4418452991       22.4457629488       10.2013087708
 Se        19.4222574389       19.4106845297       22.4311347617
 Se        22.4838338087       13.2975511785       19.3920773545
 Se        25.6263793731       31.7827853495       16.2719201680
 Se        13.2243150905       34.9402020543       25.8391854624
 Se        31.7793037253       13.1811306207       22.6365999917
 Se        22.4881271286       25.5675510826       25.5860352750
 Se        19.3418020621       31.7614859765       28.7377940620
 Se        16.2138622613       28.7049785544       34.9892627054
 Se        25.6089056253       28.6844490809       19.3847588884
 Se        13.1237923978       10.4124571240       25.5887413900
 Se        31.7934593175       19.3298788276       28.6915726877
 Se        31.6938887577       22.4929008216       25.5566319745
 Se        16.2944127268       28.6617078683       28.7345228620
 Se         9.9921302442       13.2368243392       19.1988604378
 Se        19.2356926924       31.7312506046       35.0261079551
 Se        28.5893772546       22.5684236791       10.2014623791
 Se        25.4995269710       10.2028132878       19.4536260521
 Se        19.4215966961       22.4769466875       19.3944516262
 Se        19.4424266355       31.6855146495       22.5572309673
 Se        19.4773611195       16.3750908805       25.4963232081
 Se        13.2271322390       22.3921220836       13.1701317649
 Se        31.6989627098       19.4393375333       22.5084643221
 Se        16.2879900223       16.2982514982       16.2619515472
 Se        28.6023051112       16.3924717320       16.3803282539
 Se        19.3884974219       10.2353034543       19.4063961260
 Se        28.6706763501       31.8020261783       19.3164429850
 Se        28.6052561407       28.5646858292       28.5457864830
 Se        13.2203352549       19.3723591946       16.2599302711
 Se        31.6914196216       19.5617206480       10.1826957675
 Se        16.2344208787       13.1786047653       13.1447431226
 Se        19.4569368393       28.6193035619       19.4660345783
 Se        22.5574367077       13.2928301146       25.5040991089
 Se        25.5695336895       16.3513803314       19.4179973786
 Se        22.5174873687       31.6946332957       19.4470120909
 Se        25.4899096370       25.4688411165       34.7783411811
 Se        22.5022840346       10.1981221395       22.4550688773
 Se        28.6543616673       25.5472266372       25.5298568843
 Se        16.3280734970       28.6457696572       22.6019506690
 Se        16.4449588953       13.3155906924       25.4174041279
 Se        22.6492390641       13.1906066257       31.7639546790
 Se        25.5109023863       34.7665117731       19.3698689307
 Se        28.6221514325       19.5031729130       13.2767056537
 Se        28.5067099185       28.5057057806       34.7924081398
 Se        13.3217487966       19.3843474623       28.6518069073
 Se        10.2669141667       19.4496002830       31.7004830155
 Se        25.5964167223       25.5857142534       22.4701567348
 Se        34.9476499999       22.1366537241       34.9424187348
 Se        22.7802279111       10.0466884776       34.9249094585
 Se        28.4769867264       31.5069331772       31.3917077185
 Se        16.4281141805       28.5329584921       16.4632681631
 Se        10.2503319717       19.4793542142       25.4811148746
 Se        34.7908493561       16.4376015499       16.4216851942
 Se        25.6732241922       16.2668684575       31.7636672990
 Se        25.5863666890       25.5811420982       10.1961417282
 Se        16.4346917055       16.3681963527       34.6957450333
 Se        28.6415369565       22.5008259807       22.4779248220
 Se        25.6685834353       13.1782253289       28.6885047908
 Se        13.2710866943       19.4196504828       34.7056419359
 Se        28.5801315539       22.4000928044       34.7699455634
 Se        19.5214525825       28.5956959512       13.3160967997
 Se        25.6383531151       19.3693802777       28.6519283103
 Se        19.4580676192       22.4950868015       13.2855869645
 Se        10.1881139173       31.6911469788       19.6886063604
 Se        16.4318320511       34.7607917200       22.6359112858
 Se        22.4392518280       16.3157128015       16.2958460008
 Se        31.7759360642       25.6759796891       16.2740216908
 Se        10.2781043527       25.6010512569       19.4144133239
 Se        22.5304359035       22.4907953524       10.2062967523
 Se        22.2101701221       34.8640985492       35.0396155638
 Se        16.3881579640       22.4591168017       34.7329717142
 Se        31.7758366178        9.9852022256       25.7411664981
 Se        19.4984996135       31.6742973225       16.4250771115
 Se        25.5521706030       19.4585832034       10.2129643884
 Se        10.2385686406       22.5302881830       22.4550367530
 Se        31.7906042388       25.7781710085        9.9928134110
 Se        13.1778087888       13.2298460276       22.3033900179
 Se        13.1964142374       22.5883128820       31.7942274848
 Se        10.2989448439       25.5330993601       13.2300739619
 Se        34.7536087936       25.5339607432       25.4964147970
 Se        31.6897190419       31.6978548446       28.5316644454
 Se        13.3189763258       16.4352954367       25.3905832319
 Se        31.6737628260       25.3978647475       34.8051180464