     649
 i =       42, E =    -18340.5936763587
 Cd        21.1409842226       27.0742481052       20.9639959219
 Cd        24.1976727097       30.0759468028       20.9698149402
 Cd        27.4818482689       32.6632615318       20.8368133313
 Cd        30.1277708686       36.1318248309       20.9054045428
 Cl        28.3581015047        7.1965806996       19.6478285941
 Cd        36.7058435478       23.4545372445       30.1148757989
 Cd         9.8710608745       14.4200604415       22.1180918388
 Cd        11.8276182946       18.3240019253       21.1503903118
 Cd        14.9623777817       21.2112308242       21.1755931375
 Cd        18.1205177437       24.0886762693       21.0430204937
 Cd        24.1810850308       27.0666489030       24.1060790185
 Cd        27.2277813606       30.0886643516       24.1716274674
 Cd        30.1989604145       33.0709919714       24.1823099010
 Cd        31.8066749678       36.0668601933       23.5649201976
 Cd        24.8743245115       29.8166045787        8.9403526037
 Cd        17.8432348828       15.0883115095       18.0178317302
 Cl        37.9275800966       19.7354813641       16.5542490958
 Cd        12.0616698666       15.0956587843       24.3247112436
 Cd        15.0182212393       18.0623625513       24.1663729105
 Cd        18.0865660277       21.0553365096       24.1882725316
 Cd        21.1399934829       24.0270411536       24.1354237716
 Cd        27.2219031599       27.1131066217       27.2376419846
 Cd        30.2437555275       30.3250478986       27.3919660934
 Cl        19.8985908815       37.6735575692       22.2522491073
 Cd        21.0741089716       17.9574694956       17.8712041411
 Cd        15.1182633458       20.9324389616       14.9377203609
 Cl        23.8685204705       37.6421586854       14.0445559879
 Cd        15.0537667718       14.8018727215       27.4898539033
 Cd        18.0703437100       17.9460870426       27.3168067332
 Cd        21.1165539611       20.9919759540       27.2786249738
 Cd        24.1724186911       24.0175602648       27.2374819249
 Cd        30.3281228068       27.1689165551       30.3434192119
 Cd        32.2046535297       30.7440844395       30.8192130179
 Cd        14.4272046498       35.2743199740       23.2221601903
 Cd        35.6609843349       27.1544928600       29.3153044237
 Cd        24.0191093666       14.8719374963       23.9533407693
 Cd        15.9573981903       11.8613365069       30.1845027391
 Cd        18.1326976024       14.8908807803       30.5000574898
 Cd        21.1494382636       17.9070037647       30.3562157949
 Cd        24.1645043554       20.9726722790       30.3418855122
 Cd        27.2328637112       24.0208094773       30.3429172084
 Cl        21.5597926271       13.5213007611        7.5471234600
 Cd        30.4136954778       14.9580329787       17.7115260103
 Cd        27.1386348578       17.9433859973       24.0716255634
 Cd        32.9989814995       20.8824580748       27.2218289210
 Cd        27.1596527445       21.0056501842       20.9979885586
 Se        22.6505686999       22.5211142967       28.8089668326
 Cd        27.2471677283       11.9084843492       18.1738721604
 Cl        20.0106725393        7.4125040118       19.0298444239
 Cd        21.2691927273       14.6649509560       33.2661637275
 Cd        24.4213825276       17.8128961417       33.2359102496
 Cd        27.1519708025       20.6625391398       33.2751264417
 Cd        30.5649982508       24.0239162006       33.0965495607
 Cd        24.3087650295       24.1914266039        9.8642148104
 Cd        36.2120415608       29.8412831273       25.9120288778
 Cd        24.5478204417       14.7258764175       36.3043389123
 Cd        27.4583462651       17.9452679472       36.1188770831
 Cd        29.9592104819       20.0659362291       36.3672002382
 Cd        30.9102794413       23.5245991805       36.4669431739
 Cd        24.0818757084       11.8978619383       14.9478003328
 Cd        24.0987900270       20.9981299432       11.6992207128
 Cd        15.0488459523       12.0657352031       24.2552549418
 Cd        30.2095490128       24.4194043085        9.4826110278
 Cd        33.3860852542       29.9694786961       18.2188594868
 Cd        17.9319816981       20.7998115383       11.8803368858
 Se        31.8916011265       25.6860991293       28.7151126803
 Cd        27.2546971289       14.8748872011       14.7740571372
 Cd        21.0307390683       24.0044038194       11.6747870888
 Cd        14.6514317899       15.1876659918       15.2366293386
 Cl        16.5670089398       25.7109587340        7.6330484110
 Cd        24.1409706778       18.0001245204       20.9579833608
 Cd        27.0864420194       18.1106846728       11.7748435679
 Cd        27.0881613926       17.8386480277       30.2291977874
 Cd        33.4780700263       23.9686018727       18.3155631404
 Cl        37.8166343243       21.4280914837       30.8890028879
 Cd        18.1361176159       11.6830670394       27.2259102948
 Cd        33.1793246766       15.0114365480       20.9005305079
 Cl         6.9072312447       30.2785504014       22.6516634941
 Cd        21.1284734384       21.0280252439       21.0169461788
 Cd        18.1081313178        9.0216767548       18.0046081508
 Cd        16.8643266493        9.2487843411       24.4945099005
 Cd        17.9191151613       18.1125251352       14.8820572281
 Cd        20.1315032219       15.2629533460        8.7373258181
 Cd        11.8480160990       15.1200252161       18.3230959732
 Cd        18.0227453660       18.0775127482       21.0652497082
 Cd        30.1898462291       24.1842544438       14.9915576738
 Cl        14.3583304226       22.5661094816        6.9087291308
 Cd        30.2563607437       30.0516982358       20.9884706853
 Cd        33.5031638531       18.0161786155       17.8746587246
 Cd        30.1725282294       20.9874406769       24.1380191459
 Cd        21.1488239145       14.8531671924       14.7596100569
 Cd        30.1689623581       21.1316430532       11.9138927372
 Cd        17.8353010372       24.2400354540        9.2729694817
 Cl        13.4559157122       13.4230341453       33.4027002829
 Cd        14.6659637285       30.5640485050       12.1879071433
 Cl        37.8933706850       15.5166378767       22.1142447183
 Cd        21.8304574420       36.6241349589       14.8801766440
 Cd        14.8918430919       18.1575019710       18.1367075383
 Cd        24.0359387987       30.3129161876       14.7882042473
 Cd        27.7177624577       32.9349653427       15.1564667427
 Cd        24.1542961100       24.0567541174       20.9954249225
 Cl         8.1630022497       29.2301064231       26.5572331315
 Cd        15.0417825723       27.2440979947       14.6095358934
 Cd        17.9623770429       30.2541464403       14.8191977758
 Cd        21.1123062672       33.2691318027       15.0099025408
 Cd        25.0218578099       35.6306245775       15.2029809347
 Cd         9.7851557880       21.9320278776       14.4797648802
 Cd        12.0690642200       24.0923874226       14.9452434421
 Cd        18.0369016471       27.1125721223       17.8698183231
 Cd        21.0584410891       30.1176576786       17.8692923945
 Cd        24.3316594469       32.9376979061       17.8612498246
 Cd        27.1510454624       36.1192038886       17.9530260088
 Cd        36.4151751633       23.9399508832       21.1256017545
 Cl         7.4094521759       23.3392225121       30.7685689821
 Cd        11.8488983923       21.1378970207       18.3466032045
 Cd        15.0283248272       24.0247535607       18.0227360982
 Cd        21.2909403314       30.2572885969       23.9622841014
 Cd        24.4632199166       33.3881797832       23.8674761300
 Cl        31.6931089015       21.4962576452       37.5612379439
 Cl        22.8567313911       13.9158245250       38.0771661574
 Cd         8.8911449025       18.4199042970       24.2429703694
 Cd        11.8503468338       21.1234849804       24.2888215782
 Cd        15.0864434416       24.1842878222       24.1550198669
 Cd        18.1981256839       27.1335624760       24.1130289012
 Cd        24.1731523739       30.2507746769       27.1040006158
 Cd        27.1701270206       33.4142964012       27.2139924743
 Cd        28.4049649495       35.8867765313       24.4714405376
 Cd        30.2662768270       24.1276000735       27.2796034120
 Cd        12.2173141714       11.8983239747       21.1261745273
 Cd         9.1933656697       15.3493891423       26.2879743402
 Cd        11.9063931585       18.0230124357       26.9894186005
 Cd        15.0492930065       21.0456903633       27.2260121286
 Cd        18.0974246491       24.1047553423       27.2462905408
 Cd        21.1674990636       27.1234122088       27.1384552989
 Cd        27.2035197338       30.1325886478       30.3374891972
 Cd        29.5015419672       33.0936190933       30.1059466270
 Cd        27.2054830017       17.9808490580       17.8635385269
 Cd        21.1247955069       11.8759157416       30.1245765560
 Cd        13.3998962021       14.4374615825       31.1041484475
 Cd        14.9600670937       18.0901895425       30.2135263833
 Cd        18.0671649099       21.0209093963       30.3522297853
 Cd        21.0855872844       24.0318960472       30.3358364968
 Cd        24.1067949382       27.0375565489       30.2086492324
 Cd        30.0920672021       30.2179750539       33.0740427654
 Cl        13.9123029689       23.2519806718       37.7108066168
 Cd        27.1585981185       14.9324865855       20.9917439220
 Cd        33.4159268978       26.8977465583       15.1718530631
 Cd        15.8537159939       14.0939312271       33.9355084021
 Cd        17.9938409485       18.0003567847       33.4531190317
 Cd        21.1463760029       20.8500692643       33.4924236918
 Cd        24.1532525673       23.9882854049       33.4169000027
 Cd        27.0570200416       26.9937040163       33.3357104452
 Cd        33.3167288653       27.1519743734       26.9169439906
 Cd        24.0471615689        8.7947212304       23.9446483118
 Cd        26.9016910235       11.7214016701       23.9503186485
 Cd        18.7150896651       14.0272496896       36.2953265349
 Cd        20.9045475413       17.5036610258       35.7479571779
 Se        28.7891823397       25.5565887160       31.8853044548
 Cd        27.3766268524       23.9060560526       35.5962295960
 Cd        30.0182466639       26.8723489100       35.7380627778
 Cd         8.8416602926       31.5296610301       21.6819208723
 Cl        38.0224604299       28.2416045310       25.4014995686
 Cd         8.9166418716       30.0408451833       24.3278669738
 Cd        11.9250779494       32.8673186505       24.1728280819
 Cd        30.2429428899       17.9970804152       14.7809115476
 Cd        33.2272272203       20.9821816913       14.9080056679
 Cd        27.1343627552       21.0756874252       14.8980368534
 Cd        27.0690636016       11.6901993309       29.7448683626
 Cl        25.5012073524       27.9445667508        7.2558890830
 Cd        18.0211635827       15.0304887606       24.2149209101
 Cd        35.5044838706       23.1980097727       14.4665652038
 Cd        27.3159895649       27.6053821355        8.9492329047
 Cd        33.0299481764       17.4795306950       29.9677833453
 Cd        36.3927072381       26.6778674348       24.1852362466
 Cd        33.0352251417       33.2363433560       21.0074441185
 Cl        32.0869532343       13.1220260577       12.1028391317
 Cd        24.0145584802       17.8025737316        9.4955657534
 Cd        26.7861799856        8.8055414015       20.8859989917
 Cd        30.2065426496       11.9523444456       20.9036604797
 Cd        36.2383696862       15.0970381597       24.1801458557
 Cd        30.3486539593       21.0809015853       30.3567103299
 Cd        30.0428772145       14.6045892861       29.8888387487
 Cd        30.1791688909       14.9496746722       24.0916972582
 Cd        36.2076743882       18.0812247499       27.1457313360
 Cd        27.4713607573       24.1073828172       12.0698299579
 Cd        30.3321480844       23.9247339056       21.1413555089
 Cd        33.1722961442       24.1362829700       11.9272472588
 Se        10.4415081299       22.7336422906       28.6346714395
 Cd        19.2273623087        9.0865448891       29.9692570204
 Cd        33.4767075653       26.7753676697       21.1187045014
 Cd        36.5267496899       20.8967562732       18.2619475537
 Cd        12.2938224308       30.0259570354       15.0407073810
 Cd        14.7307208472       32.5956133196       15.0320446451
 Cd        18.5706024990       35.5861351317       16.7228947487
 Cd        33.4733864543       20.7368817846       21.2163437704
 Cd        24.1052590666       21.0155922371       17.8798096849
 Cd         9.3245947085       26.1281242931       15.2066291202
 Cd        14.8720432804       30.0223063250       17.9287643055
 Cd        17.8764854863       32.9853915206       18.1743235724
 Cl         7.4659795476       22.7976324339       19.8308014310
 Cd        30.1334104868       11.8260773846       26.8204369543
 Cd         8.8426366704       24.2061673174       18.3060661719
 Cd        12.1409989833       26.8772577589       17.8427839225
 Cd        18.1780735179       30.1206508531       21.0968564427
 Cd        21.2175795483       33.3168593936       20.7398753744
 Cd        24.3853674589       35.9757303060       20.5104352171
 Cd         8.8912427436       21.1555882700       21.1366874414
 Cd        11.8496078450       24.4412480690       21.2536179203
 Cd        15.0959387067       27.1016353029       21.0455690055
 Cd        21.2182111492       33.3938286755       26.7855278171
 Cd        24.2867623543       36.4397247777       26.7994902745
 Cd        33.4206169296       24.0144281881       24.3248951576
 Cl         7.3638969554       16.8626633280       25.5819259924
 Cd        12.2263345628       24.1862882623       27.2089560980
 Cd        15.1202070164       27.3244842791       27.0701072327
 Cd        18.2329302074       30.2773347724       27.0136691275
 Cd        24.2233015519       33.1571269895       30.1851869502
 Cd        26.1422564212       35.9247167327       30.0305039698
 Cd        24.1043580034       17.9488340415       14.7800503852
 Cd        21.1144690506       24.0858060117       17.8754857716
 Cd        24.1852881760       27.3073607617       11.9251262759
 Cd        10.7511279312       17.6366773844       30.2230926822
 Cd        12.0572033838       21.2160167177       30.2877702885
 Cd        14.9792114870       24.0951720735       30.2258245541
 Cd        18.2203693759       27.2694886143       30.2281402714
 Cd        21.0353714045       30.1184779506       30.1091550278
 Cl        25.2043320459       16.1869913812        7.6932785396
 Cd        23.6030794727       14.2660472954        8.6370254848
 Cd        26.9650374821       15.1431586289        9.4015213168
 Cl        22.3825648936        7.3192114646       25.1363007112
 Cd        14.7925264170       21.3378805859       33.0641895590
 Cd        17.8803836868       24.1090446701       33.1860455471
 Cd        21.0817349854       27.3838035528       33.0598646665
 Cd        24.0493938936       30.0977304208       33.1920906180
 Cd        30.2863356054       18.5472150445        9.1835570961
 Cd        32.0906261944       21.5306796166        9.0889250876
 Cd        24.2916142864       15.0194777885       30.1360780202
 Cd        14.1794163665       17.7345205707       33.9384050832
 Se        28.6891818619       16.4573264794       22.5146942974
 Cd        20.9645872954       24.1805981181       35.2689726307
 Se        25.7267215645       25.5315373493       28.7619442129
 Cd        26.6144756904       30.2031371933       35.9365528985
 Cd        15.1135526621        9.0132437425       20.9560308642
 Se        22.6767541201       25.5853502321       19.4145995688
 Cl        15.9335831472        8.0909507814       18.8133686044
 Cd        21.1144259038       27.1387278197       14.8081609080
 Cd        24.1906287410       27.1263992590       17.8713653793
 Cd        20.2745252615        9.4425870032       15.2721092084
 Cd        27.2346094769       27.0266835500       21.0515384421
 Cd        17.7749187077       12.4675311882       20.8893279837
 Cl        12.8041964395       32.2331570478       13.2223656560
 Cd        30.2740141413       27.0725191753       24.1079978478
 Cd        11.8183048862       18.2139179123       15.2740033643
 Cd        20.8997212719        9.1676658518       20.5518930728
 Cd        30.3354099639       15.0859988359       12.0731478992
 Cl        25.3303090804        7.3593629842       22.3005711687
 Cd        27.0716896878       14.8028462447       26.9715848656
 Cd        27.2147600167       24.0402241420       17.9874602688
 Cl        22.9022041698       37.7354502525       25.1665289860
 Cd        30.1275287526       17.7765082117       27.1067810331
 Cd        20.9857939055        8.6370859202       26.7382980647
 Cd        20.9213128567       12.2244607785       17.9213776410
 Cd        21.0789135464       18.0146024658       24.1264839334
 Se        19.7428081091       31.8127862721       10.0847558458
 Cl        16.7749500889       37.7374652465       19.5463052385
 Cd        35.7464917778       20.2321502835       29.8868635735
 Cd        27.4012962351       30.0269559323       18.0037841851
 Cd        24.5792999356       11.9815809693       32.9246957328
 Cd        23.4938373398        8.4833609117       15.0774604198
 Se        19.7398705995       25.6529726699       10.1121998306
 Cd        30.8199916306       12.9517208229       14.3278080850
 Cd        33.1846816663       15.6592960742       15.0171347822
 Cd        35.9919472905       19.0328600536       15.0407418416
 Cd        36.0529653343       20.8334088744       24.5627338698
 Se        19.5631217867       13.3966644846       28.7145832358
 Cd        30.2020890223       17.5583737310       32.9053248909
 Cl        28.9795860520       25.0983960936       37.4235422933
 Cd        15.1886798071       35.8241262877       19.0929735655
 Cd        30.3693649281       26.9700458169       18.1032934184
 Cd        30.3329191132       21.0449645906       17.9984213417
 Cd        24.0898814438       14.6341067369       12.0102890410
 Cd        33.2524385833       30.1021543553       24.1786990963
 Cd        24.0861243637       11.7340806735       26.7510956316
 Cd         9.6226499241       28.4890733619       18.8749203663
 Cd        14.9473368906       33.0235015250       21.0114543069
 Cd        18.3137768169       36.2686717944       20.9257627638
 Cd        24.1694300509       21.0245725998       24.1170928260
 Cd        24.2046420915       14.9375882432       17.8509293118
 Cd        30.8228412516        9.7757825712       23.1503117443
 Cd        33.3813083883       12.1584536600       24.0389074257
 Cd        17.6227150345       14.9994767453       12.2252994027
 Cl        30.6730154816       20.1974582918        7.3277660258
 Cd        11.8490469566       29.9340780126       21.1333159142
 Cd        18.3850032167       33.3807702458       24.0105257441
 Cd        21.2174141911       36.2997344395       23.9282323752
 Cl         7.4601359102       19.8353943563       22.7448471776
 Cd        14.8991521715       24.0460355953       11.8368596393
 Cd         9.1997508889       24.3498902993       24.5053277380
 Cd        12.2445555091       27.6077640319       24.2478804632
 Cd        15.1216864503       30.1219375354       24.1552608311
 Cd        21.9862194673       35.4197307976       30.6216326346
 Cd        27.2088831697        9.5532357622       15.8289876999
 Cl        37.8120004633       19.9651228140       26.0905133959
 Cd        35.9863811945       16.8214622912       20.6169937195
 Cd        18.2728333156       27.0635193782       11.7621523212
 Cd         9.4117357625       24.6997042089       29.8790689089
 Cd        12.1461032739       27.5186543320       29.9747036237
 Cd        15.2133565437       30.4185507927       29.9409170531
 Cd        18.2675424633       33.3079731952       29.9496869063
 Cl        15.8765842258       18.6740188428        8.0119476462
 Cd        33.3066967478       24.0243876245       30.1873332862
 Cd        23.3644251038        9.5920646271       30.4993804222
 Cd         8.7116744117       21.3588126152       30.0960515147
 Cl        29.3296070160       37.0553755736       18.7613682954
 Cd        14.9688546723       27.4219192902       32.8810182291
 Cl        21.4724843225        7.3529322419       14.3138262998
 Cd        21.0511762094       33.0954185264       33.1677236221
 Se        34.7321407009       31.7600028485       19.6528236894
 Cd        13.0007338432       23.3202261629        8.8825889149
 Cd        14.4244095886       21.3850651640       36.2342136882
 Cd        15.4250153626       24.7340917825       36.2155919680
 Cd        17.5600202268       27.2307066853       36.1482409050
 Cd        20.7410961561       30.1284026728       35.5984773737
 Cd        15.1304057342       26.8383977534        9.3373137223
 Cd        21.0736234710       21.0251399285       14.7944807752
 Cd         9.0080980470       26.9796612467       27.1907374226
 Cd        15.0141980478       15.0486086010       21.0497174219
 Cd        29.9554360972        9.0173791632       19.1528231711
 Cd        36.2115398620       13.4256061243       21.5106780859
 Cd        21.1466938119       30.4455872453       12.0067080723
 Cl        26.5602009547       15.8338245267       37.1788773192
 Cd        15.2013071302       33.2484847047       26.9125568236
 Cd        20.8220274306       11.7501446298       23.8792274049
 Cd        14.8820075165       20.8084808117        8.7143951514
 Cd        27.2072547052       24.0426690047       24.1684484315
 Cd        35.4278842463       30.6897691768       21.9114545429
 Cd        24.1418872444       24.1009728609       14.8039130158
 Cd        30.5709682133       29.9295715543       15.1808143796
 Cd        17.5375423514       12.1787792403       15.1639247770
 Cd        20.7525642837       18.0362767994       11.8345887185
 Cd        12.1206382198       20.8120010613       11.9879367869
 Cd        18.0303999388       24.0345307719       14.8299277083
 Cd        18.0851677504       21.0424797451       18.0028453440
 Cd        21.0612037182       15.0403079522       20.9836790292
 Cd        21.1237388070       14.8347891592       27.1362998557
 Cd        24.1230573497       17.9533520152       27.1442327011
 Cd        27.2275866893       20.9832493237       27.2533489284
 Cd        30.1837228074       17.9792698165       20.9280785597
 Cd        18.0144525454       17.7682556509        9.0228786783
 Cd        17.4003609755       30.8405993731        9.9641775966
 Cd        27.3050731982       27.0065332930       14.8696018134
 Cd        24.1008028185       11.7747971440       20.7682684912
 Cd        32.7664084265       17.7190146210       24.2575471593
 Cd        27.5396704913       30.1725230091       12.2313433819
 Se        13.5353717435       29.1291939656       31.4927010249
 Cd        21.5050400338       30.6517898433        8.7371946905
 Cd        13.4662765871        9.0349482604       23.6358792888
 Cd        23.6299453584       31.9930548823       36.0340361437
 Cd        22.3610141263       12.5047335282       36.0505937574
 Cl        37.8442197125       25.2270144584       22.7617746830
 Se        31.8839632003       16.8361389076       13.1476714947
 Cl        17.2660539335       25.4507952663       37.8907686685
 Cl        32.0475398829       31.9793365732       33.0595775992
 Se        35.3924220508       31.6880819859       24.3737546721
 Se        31.7077174512       22.6283393690       13.4745551500
 Se        13.4044021340       35.1759449982       20.7741163364
 Se        19.5886503133       25.5985547054       16.3349778741
 Se        28.5454450227       13.2862790791       25.3763307416
 Se        22.6200759154       22.5508303837       16.3222128059
 Se        10.3849605165       19.5933271514       13.5264065989
 Se        16.5958288049       19.5036469406       25.7367367445
 Se        31.7750828237       16.5794801054       19.3441151150
 Se        25.5288027495       13.3561183399       22.3735967952
 Se        31.8419187917       25.4329197543       22.7173043814
 Se        19.6285038805       22.5535491164       25.7272957659
 Se        21.0104800652        9.7151497612       31.6716596543
 Se        19.2608202474       10.1012655112       25.3472703784
 Se        16.3960007724       22.3851637216       10.2892417611
 Se        19.5873694734       19.5592383663       22.5920081577
 Se        22.5964645563       13.5087001703       19.4198849519
 Se        25.8859288445       31.5128006239       16.3445586464
 Se        13.4226102461       34.5940200812       25.5000765522
 Se        31.7384871649       13.4725944355       22.4707361525
 Se        22.6863159475       25.5425486473       25.6600787801
 Se        19.8045623960       31.8292731923       28.4559389069
 Se        15.0592364680       27.1979456195       35.4342336641
 Se        25.7610078113       28.5645267804       19.4601690373
 Se        14.5815108522        9.8752219769       25.6928557225
 Se        31.6134460104       19.3156187585       28.7665692511
 Se        31.6979152439       22.5237431801       25.7011903517
 Se        16.7472396598       28.7926836845       28.6007022558
 Se        10.4985651441       13.3677471776       19.8099104195
 Cl         7.3937723004       25.5437557168       16.7265274421
 Se        28.6747219866       22.5925687719       10.2834362954
 Se        25.4978030731       10.2395879736       19.1666587330
 Se        19.6402167077       22.5795488909       19.4844230935
 Se        19.7936328319       31.7920567894       22.3884223546
 Se        19.6064477595       16.4966021236       25.7129815583
 Se        13.5369055798       22.4669090985       13.4479456818
 Se        31.6589170735       19.4201684359       22.6075025585
 Se        16.3607799787       16.6780848312       16.5164859676
 Se        28.7181478036       16.4561477847       16.3192970446
 Se        19.2920974266       10.8392239601       19.4187477884
 Se        29.1264269059       31.5635008533       19.2016224605
 Se        28.7476009734       28.6231345751       28.7855014317
 Se        13.4071688486       19.7355464720       16.6527263350
 Se        32.0029505321       19.6081126973       10.7213961175
 Se        15.9426478325       13.5383582757       13.6373541785
 Se        19.5980543867       28.6020804518       19.4516774062
 Se        22.4333096792       13.2978627883       25.3825360698
 Se        25.6781329173       16.4672776697       19.4219292004
 Se        22.6918307743       31.6090569749       19.3804546487
 Se        25.6245764960       25.5526504908       35.0053093549
 Se        22.4347895566       10.2260961614       22.2903929617
 Se        28.7451153590       25.5876402782       25.6857470073
 Se        16.6408114452       28.6169774489       22.5986701545
 Se        16.6463907796       13.4334712307       25.8186395823
 Se        22.8063197557       13.3524560770       31.5659466112
 Se        25.9806002845       34.2975062121       19.3763266447
 Se        28.6224422646       19.5427672610       13.3450605900
 Se        28.5604612828       28.7773307770       34.9309221429
 Se        13.3977274717       19.5680048388       28.6798877874
 Se        10.0542370039       19.7428513918       31.4461766305
 Se        25.6956139973       25.5307554931       22.5783868977
 Cl        29.7321021884       37.7825651278       22.9717332426
 Se        24.8307382273       12.2329591090       35.4376501726
 Se        28.3528388005       31.7726480269       31.9779841997
 Se        16.5105646158       28.6397254932       16.3579926157
 Se        10.3262143968       19.7729695105       25.8908074503
 Se        35.1561444061       16.8953864874       16.1607970915
 Se        25.8941244882       16.1825991085       31.8058125303
 Se        25.9938569101       25.8674572618       10.5388961668
 Se        16.2366107190       16.5285154027       34.7611269611
 Se        28.6708637580       22.4909941226       22.6005191980
 Se        25.5042092221       13.2903625458       28.4250340432
 Se        13.1121529598       19.9330709713       34.6872758916
 Se        29.0901994940       22.2186043784       34.7855986134
 Se        19.6202268277       28.7411961188       13.3359403846
 Se        25.6504119557       19.4604104195       28.7207022724
 Se        19.5226594664       22.4975434639       13.2632302013
 Se         9.9692242404       30.9389016893       19.5003169775
 Se        16.8045406341       34.6548567235       22.3410349829
 Se        22.6135946136       16.4109040525       16.3382191399
 Se        31.9061999953       25.3945598050       16.6555049342
 Se        10.3095350211       25.9656067247       19.5800492575
 Se        22.5868334505       22.4816115142       10.0945310046
 Se        21.1740121103       32.6834926785       35.7382473614
 Se        16.3628061472       22.6760300736       34.8673058931
 Se        31.9138804304       10.4620088038       25.3961777236
 Se        19.5150148389       31.7424582715       16.4721456385
 Se        25.6640768078       19.5504440877       10.0993614120
 Se        10.2919231401       22.8147569886       22.7657141971
 Cl        15.5455707106        7.3453317092       23.0067923092
 Se        13.5296417448       13.5328552264       22.6995336038
 Se        13.2611767298       22.9406768435       31.7631001603
 Se         9.9075343585       24.3844304128       13.4399234150
 Se        34.9702352309       25.3941921503       25.9159640865
 Se        31.5547769171       32.1063152190       28.8075561805
 Se        13.6937593673       16.4396798566       25.8065197636
 Se        31.8990720667       25.3669149949       35.0266154887