     935
 i =      258, E =    -21549.4930822773
 Cl         9.3752227611        8.7182868080       11.3831598542
 Cl         9.2585461489       12.5895090916       14.7606434751
  H         8.5388083131       14.1792613091       12.6869006890
  H        10.6252584006       14.1461473842       17.6926397852
  H         9.3268400647       19.8477262996       17.3521833917
  H        10.4594576186       21.2300023303       24.7183877152
 Cl         9.0012065485       23.2090738171       21.7323680280
 Cl         8.9550929122       24.9072190057       26.0399245334
 Cl         8.9824838689       29.2158760678       27.8277741964
 Cl         9.1377004101       30.5458566035       32.3731566262
  H         9.2735304091       33.6520172571       31.1416811570
  H         9.5525314648       34.1345026015       36.7377605201
 Cl         9.0792232265       35.3274348386       33.4262639310
 Cl         8.9935787657       35.8884799843       38.1444783063
 Ga        10.1551715694       10.3295182145       10.2445238384
 Ga        10.7157956019       13.2686539171       13.2794157995
 Ga        10.8009209457       16.2374006221       16.3284952652
 Ga        10.8037778022       19.4419134405       19.2706458797
 Ga        10.8041176491       22.3182042998       22.4855424674
 Ga        10.8039276418       25.6784302947       25.2733291304
 Ga        10.8008597505       28.4028428676       28.6407641832
 Ga        10.7329156501       31.6790295921       31.4495606994
 Ga        10.7267988660       34.6344543299       34.6347985270
 Ga        10.3971927275       37.5114185433       37.7602947472
 Cl        11.0860314095        9.8040072183        8.4165464831
 Sb        11.9550763790       11.6040174744       11.7646667697
 Cl        12.2697702300       12.4046796675       17.6109658752
 Cl        12.2358454075       14.5515036106        9.2437308075
 Sb        12.2223918350       14.8881291730       14.6788829953
 Cl        12.5092402653       15.0723495049       20.6222637702
 Cl        12.5419226429       17.6741823431       12.0319151236
 Sb        12.2131245477       17.7781612689       17.8897191333
 Cl        12.3254059045       18.3824911635       23.5911876914
 Cl        12.2646747892       20.6311481247       15.3483926935
 Sb        12.2405321682       20.9818189916       20.7974717948
 Sb        12.2147304204       23.9834619237       23.9032168312
 Cl        12.2991613650       24.3828231511       29.7753241465
 Cl        12.4745453469       26.6991321572       21.1857943496
 Sb        12.2166226558       27.0007020512       26.9928672427
 Cl        12.2469455857       27.4390404687       32.6310498297
 Cl        12.4012565342       29.7008744797       24.3283936956
 Sb        12.2024971937       30.1600388814       29.9375827280
 Cl        12.2606561233       30.4901232952       35.8632622637
 Cl        12.7842364987       32.8380621536       27.0382602130
 Sb        12.1599128988       33.1350701633       33.0512865659
 Sb        12.0591799899       36.2998379244       36.0751015240
 Cl        13.0183754712       39.1135966777       33.2876325295
 Cl        11.5419577982       38.0087369770       39.4903363309
 Ga        13.4427864399       10.1560739248       13.2931365120
 Ga        13.4480171983       13.1270013110       10.3085932898
 Ga        13.6830071137       13.3598453282       16.2435963457
 Ga        13.7762937140       16.3329672367       13.1999912016
 Ga        13.7649354045       16.3175714524       19.3708376365
 Ga        13.6932820041       19.3506595999       16.3975018254
 Ga        13.7593211796       19.4414223454       22.3168212431
 Ga        13.8422864011       22.4766982483       19.3588854456
 Ga        13.6998506547       22.4805554746       25.4384192736
 Ga        13.7742371076       25.4415610544       22.4104963304
 Ga        13.6952885180       25.4511674038       28.4800911514
 Ga        13.7759162992       28.4842949766       25.5235554440
 Ga        13.6884368900       28.6412635905       31.5105080025
 Ga        13.8465884259       31.5968365518       28.4789768204
 Ga        13.6062206232       31.5964945023       34.5526880517
 Ga        13.8363746975       34.6341856368       31.6786859235
 Ga        13.6752211183       34.7983785457       37.4391154389
 Ga        13.7648655120       37.6791667535       34.7093111134
 Cl        14.8202948683        8.9405409113       12.1855035275
 Cl        15.9652526406        8.7212364839       17.2941061556
 Sb        15.0477642814       11.7264796728       14.7918621933
 Sb        15.1467827156       14.6966586398       11.7217504485
 Sb        15.2224937547       14.8126954118       17.8379516540
 Cl        15.5320606695       15.2732476772       23.7321654326
 Cl        15.9915594372       17.1643605439        8.6924620836
 Sb        15.1886291807       17.8954845562       14.8086809681
 Sb        15.2437213912       17.8611502575       20.8838166660
  H        16.5296078501       17.4137348672       26.7717850355
 Sb        15.2576892842       20.9027763006       17.8393394725
 Sb        15.2095471148       20.9127628678       23.9521805371
 Cl        15.5118694040       21.4380192605       29.8977818971
 Cl        15.5349395115       23.5300505690       14.9678239198
 Sb        15.3044520071       23.9279431504       20.9531185670
 Sb        15.2062603079       23.9331560804       27.0081330122
  H        16.4814869713       23.5849928766       32.9809699943
  H        14.8775378566       26.9935627468       19.0748151668
 Sb        15.2414471921       26.9835983332       23.9680956368
 Sb        15.1656324947       27.0039862592       30.0349018599
 Cl        15.4224618086       27.4240301703       35.9113220050
 Sb        15.3114798260       30.0039497661       27.0208828756
 Sb        15.1717775080       30.0759720919       33.0944080993
  H        16.0121929901       29.3181242122       38.8015569851
  H        14.7541678155       32.7774813475       25.1074081194
 Sb        15.2641560272       33.1251739014       30.0702811326
 Sb        15.0972122606       33.0308346847       36.1235169707
 Cl        15.5413464818       35.9180319223       27.3583310637
 Sb        15.2863999162       36.0806024415       33.2718753368
  H        14.9590774816       36.8879013767       37.8296083765
  H        14.6904726382       38.8566911413       31.3233451706
 Ga        16.7279323506       10.4067369892       16.2337354113
 Ga        16.5631888531       13.2811901532       13.3656640809
 Ga        16.8768814690       13.3656828066       19.2800463498
 Ga        16.7991773048       16.1655438000       10.4009967900
 Ga        16.7280902005       16.3391641935       16.3244818401
 Ga        16.8056692923       16.4018639551       22.3889830315
 Ga        16.8042455679       19.3577065587       13.3710925660
 Ga        16.7346719175       19.3690215476       19.3629434615
 Ga        16.8717108930       19.4416113962       25.3571051158
 Ga        16.8008205677       22.3950809255       16.3198426802
 Ga        16.8016738573       22.4008103906       22.4757019654
 Ga        16.7988489414       22.4850532743       28.4869818290
 Ga        16.8062230117       25.4346402727       19.4470708339
 Ga        16.7247101765       25.4535698460       25.5111239069
 Ga        16.8033340603       25.5191915337       31.4361240809
 Ga        16.7349220426       28.5501514983       22.4801313687
 Ga        16.7945432376       28.4807029291       28.5591448013
 Ga        16.7161383516       28.5514403926       34.5516637949
 Ga        16.8733486387       31.5116382355       25.5384218068
 Ga        16.7211369302       31.5912131563       31.5947604377
 Ga        16.4853312857       31.3610282292       37.5216631453
 Ga        16.8007113497       34.6346480165       28.5623200892
 Ga        16.7248068279       34.4816234493       34.7115132013
 Ga        16.7207190036       37.5168937423       31.6774767113
  H        18.9417756543        9.6962519448       15.2773568597
 Cl        18.1660871638        9.4761266124       20.7955532750
 Cl        17.9370966858       11.9685386142       12.2822944537
 Sb        18.3015012578       11.7894519952       17.8156233923
 Cl        18.4596775807       12.1301216680       23.6002916064
  H        18.8941803421       14.7604566674       10.2137570809
 Sb        18.1852751641       14.7990988290       14.8247778293
 Sb        18.3195915790       14.8473355124       20.8938870853
 Cl        18.3689028001       15.3797064332       26.7243752336
 Sb        18.2209393910       17.8430005591       11.8344470284
 Sb        18.2661030423       17.8538518748       17.8595753077
 Sb        18.3361789437       17.9248774647       23.8643235570
 Cl        18.1290979607       20.8762237893        9.6103383498
 Sb        18.3393515852       20.9209176199       14.8042295504
 Sb        18.2717502028       20.9244427131       20.8817911049
 Sb        18.2577561795       20.9422403180       26.9740027883
 Cl        18.4427851897       21.4164174462       32.8549665307
 Cl        18.8287063373       23.8280921291       12.0777058087
 Sb        18.2511705452       24.0151952487       17.8108169190
 Sb        18.2648230704       23.9939492207       23.9532483053
 Sb        18.3349075847       23.9827111514       29.9999439407
 Cl        18.7791068510       26.7797290341       14.9380366135
 Sb        18.2430414453       27.0835975103       20.8808153315
 Sb        18.2822498400       26.9848077643       27.0159108118
 Sb        18.2013008116       26.9964204713       33.0647494768
 Cl        18.7779086443       27.8113625680       39.2727803843
 Cl        18.7315492855       29.9416543478       18.1477507122
 Sb        18.3095485790       30.0743435755       23.9327241937
 Sb        18.2488350156       30.0614141843       30.0790196902
 Sb        18.1902296131       30.0298637425       36.0800394388
 Cl        18.7753694103       32.8424799577       21.1335343921
 Sb        18.2910583996       33.1428146783       26.9982922890
 Sb        18.2628169841       33.0605765978       33.1544717944
 Cl        17.3264890366       32.1738339245       39.3263783431
 Cl        18.7915295779       35.9873543561       24.2703171423
 Sb        18.2796420185       36.2121632721       30.0407816991
 Cl        14.9862800996       38.6106647739       36.2391969796
 Cl        17.7574138282       39.1134641861       32.6318084999
 Ga        19.6654873165       10.2511417004       19.4407178185
 Ga        19.7537950593       13.3615039460       16.3291936823
 Ga        19.8339401133       13.2869046142       22.3957405893
 Ga        19.6809094127       16.3302519239       13.3645819224
 Ga        19.8338668115       16.3370150456       19.3588255995
 Ga        19.7733624836       16.4216138761       25.4439127208
 Ga        19.6017611293       19.4467609596       10.3248199460
 Ga        19.7747263120       19.3610783556       16.3319267963
 Ga        19.8405066632       19.4466714509       22.3941882542
 Ga        19.7733119638       19.4330090166       28.4760114144
 Ga        19.9270585392       22.3968436927       13.2870604035
 Ga        19.7635430159       22.4831371547       19.3631628862
 Ga        19.7746664037       22.4734752680       25.4441943945
 Ga        19.8376500075       22.4886783003       31.5872752312
 Ga        19.8502294839       25.5071293952       16.3344605823
 Ga        19.7663015291       25.5217964938       22.3998434693
 Ga        19.8390933861       25.5158056428       28.5460653626
 Ga        19.6861781989       25.4396601891       34.5531018107
 Ga        19.8512977072       28.5490408633       19.3755502006
 Ga        19.7702029812       28.5533680984       25.5121162332
 Ga        19.7610812157       28.5504601061       31.5967205907
 Ga        19.7688076483       28.5677828468       37.5177828114
 Ga        19.9200595259       31.5848611338       22.4792984631
 Ga        19.7636723566       31.5923016426       28.5500878622
 Ga        19.7614194196       31.5177410093       34.6292318708
 Ga        19.9214332045       34.6273537411       25.5348762590
 Ga        19.5977366469       34.4747485066       31.4331827617
 Ga        19.9996804259       37.6755097572       28.6412888835
 Cl        21.9857109147        8.7384056452       23.3697308015
 Cl        20.9600332703       12.0351198814       15.1093085773
 Sb        21.2883783496       11.7408573200       20.8754633339
 Sb        21.3470020070       14.8088065028       17.8546019579
 Sb        21.2444611116       14.8297739466       23.9916390427
 Cl        21.5149457924       15.3140493566       29.7671942836
 Cl        20.5423973292       18.3343201129        8.7394200857
 Sb        21.2942290976       17.8251219679       14.8357998377
 Sb        21.3161457273       17.8721262687       20.9255821283
 Sb        21.3007139166       17.9537640156       26.9454640939
  H        22.5435680123       17.4140294096       32.9154267756
 Sb        21.3511236108       20.8339865401       11.7476777402
 Sb        21.2764364948       20.9211159982       17.8818215993
 Sb        21.3371116941       20.9726227314       23.9302525105
 Sb        21.2556385726       20.8997383837       30.0713385713
 Cl        21.6021910668       21.4047721531       36.0375795767
 Sb        21.3414910187       23.8969242784       14.9191025815
 Sb        21.3132478074       24.0026701802       20.8885832501
 Sb        21.2962481144       23.9419814130       27.0301037556
 Sb        21.3340504057       23.9964412340       33.1149076038
  H        22.2189724906       23.3207972253       38.9885883828
  H        20.7455822823       26.8036783976       13.1564694690
 Sb        21.3528870640       27.0370543166       17.8488862945
 Sb        21.2894056224       26.9998511498       23.9864388531
 Sb        21.3081395662       27.0184094851       30.1028202553
 Sb        21.1716157195       26.8733639369       36.1428708400
 Sb        21.3572083805       29.9886495639       20.9803777473
 Sb        21.3046465587       30.0441279259       27.0514341765
 Sb        21.2820184077       30.0035780150       33.1444048672
  H        20.8857518533       32.8973368349       19.0890764349
 Sb        21.3898339938       33.0722967401       24.0252281777
 Sb        21.3200382522       33.0694333512       30.0791485423
 Cl        20.9287110849       32.6414513279       36.0729502356
 Sb        21.3890105574       36.0986393357       27.1002189639
  H        20.7736897501       38.8480408262       25.0148507592
 Cl        21.2331356647       38.6428499642       30.0972049100
 Ga        22.8900193306       10.4082711377       22.4002443812
 Ga        22.7991698087       13.2915535398       19.4395504219
 Ga        22.8843764661       13.4389563261       25.4500804796
 Ga        22.7981320018       16.4786377217       16.4796731182
 Ga        22.8010388133       16.3321504838       22.4793922975
 Ga        22.8102688058       16.4787164472       28.4766193172
 Ga        22.7974156414       19.3669615591       13.3571476383
 Ga        22.7933771840       19.4442658657       19.4402071630
 Ga        22.8642905593       19.4416325408       25.4467249592
 Ga        22.8800639879       19.4359710150       31.4992315896
 Ga        22.9514002162       22.3911633224       10.4024307613
 Ga        22.8735885770       22.4017446844       16.4032335879
 Ga        22.8673838640       22.4865116633       22.4082244822
 Ga        22.8030255549       22.4044022051       28.5584110383
 Ga        22.8786469198       22.4910800606       34.6317316010
 Ga        22.8081018484       25.4388505613       13.4454508482
 Ga        22.8645464316       25.5189936825       19.3654037938
 Ga        22.8052832861       25.4477855866       25.5101304664
 Ga        22.8722988743       25.5128700994       31.6001195463
 Ga        22.6459977481       25.2824995550       37.5882285728
 Ga        22.8817289220       28.5553642720       16.3302434866
 Ga        22.8745749333       28.4807342864       22.4813502445
 Ga        22.8124017941       28.4883314669       28.5582881795
 Ga        22.7213904298       28.3999924584       34.6405565192
 Ga        22.8877952274       31.4470677935       19.4597003018
 Ga        22.8736249660       31.5172014541       25.5173155590
 Ga        22.7955541268       31.5134633002       31.6009472034
 Ga        22.8879909928       34.5580365509       22.4762945245
 Ga        22.8780175623       34.5624161375       28.5569976014
 Ga        22.7958494481       37.5175645450       25.4452626943
  H        24.9711557573        9.1411606355       22.0257119617
 Cl        24.1776556332        9.4883543607       26.8499685655
 Cl        24.0914973663       12.0406312497       18.2370874049
 Sb        24.3286622710       11.9028946938       23.9692523099
 Cl        24.4106572258       12.1918500044       29.6633538162
  H        24.8423524109       15.0922227387       16.1131948158
 Sb        24.2954492875       14.8594201454       20.9413475681
 Sb        24.3431747332       14.9119487006       27.0280228650
 Cl        24.3598388249       15.4422083411       32.8374541532
 Cl        24.0930311589       18.0932514820       12.1736552078
 Sb        24.3200843763       17.9840951314       17.9519531749
 Sb        24.3462700280       17.9001521563       23.9411898223
 Sb        24.3720909283       17.9218632917       30.0189011471
 Cl        24.4252630682       18.1753843629       35.7854974489
  H        25.0499262616       21.0021773726       10.2124991933
 Sb        24.3257660348       20.9049686233       14.8586084574
 Sb        24.3616769650       20.9738889065       20.8859207254
 Sb        24.3565087827       20.9588743283       27.0056153341
 Sb        24.2897792567       20.9126263581       33.1067309145
 Cl        24.8691371396       21.7720119338       39.3349094391
 Sb        24.2989650556       24.0608502567       11.8453779561
 Sb        24.3726795467       23.9832029860       17.8696243523
 Sb        24.3645810359       23.9879069309       23.9691201135
 Sb        24.3231502899       23.9375203143       30.0735749971
 Sb        24.3979059121       24.0094837829       36.1518185697
 Cl        24.4973126846       26.8425201322        9.1296156160
 Sb        24.3672754825       27.0732405372       14.7708601165
 Sb        24.3765998359       27.0358237061       20.8960227156
 Sb        24.3324386328       26.9759634900       27.0207386229
 Sb        24.3794717669       27.0307664120       33.1467022028
 Cl        23.3530673072       26.2232695933       39.3912554178
 Cl        24.9509109249       29.9810923585       12.0344162273
 Sb        24.3904299820       30.0851841864       17.8396896618
 Sb        24.3834598239       30.0013066116       23.9914229708
 Sb        24.3350963727       30.0400717689       30.0680186833
 Cl        23.7935232929       29.5831422559       36.1359801469
 Cl        24.9300135260       32.8904375139       15.0171371895
 Sb        24.3651595033       33.0874203445       20.8811530598
 Sb        24.3643690278       33.0074668693       27.0784007009
 Cl        23.9669907924       32.7808501265       32.9026637974
 Cl        24.8115950072       35.9628657913       18.2158672364
 Sb        24.3877800802       36.1496250884       23.9248189008
 Cl        24.1970956026       35.7391321453       29.7811213228
 Cl        24.9911465050       39.0462192024       21.3027577957
 Cl        23.7145625647       39.2288246802       26.3184924334
 Ga        25.6789015900       10.3287387658       25.5362185398
 Ga        25.8323142461       13.4338503083       22.4809553538
 Ga        25.8407498233       13.3572537464       28.5543055499
 Ga        25.7616604719       16.4013315747       19.4420651871
 Ga        25.8431228789       16.4038142862       25.5128105726
 Ga        25.8436488988       16.4041238406       31.5936680052
 Ga        25.8376212052       19.4434253003       16.4008509098
 Ga        25.8453227612       19.4369855240       22.4113134934
 Ga        25.8513585470       19.4432327640       28.5460433977
 Ga        25.7729459257       19.3523676741       34.5635690821
 Ga        25.7600842922       22.4929067944       13.3653689006
 Ga        25.9199398742       22.4782898130       19.3629554146
 Ga        25.9102439785       22.4775435992       25.5122767833
 Ga        25.8410858489       22.4106804044       31.5962598727
 Ga        25.9273703943       22.4758572554       37.5882375685
 Ga        25.7674250486       25.5279315442       10.2466303574
 Ga        25.8473079376       25.5161249679       16.3178547733
 Ga        25.8516936020       25.5114248026       22.4137700624
 Ga        25.8387500354       25.4389776865       28.5488017306
 Ga        25.9132128858       25.5112785525       34.6288794625
 Ga        26.0065181065       28.5513782167       13.2802763187
 Ga        25.9135610887       28.5637060994       19.3696491361
 Ga        25.9107612375       28.4824249790       25.5177761703
 Ga        25.8358707749       28.4678146123       31.5086512760
 Ga        25.9999078405       31.5959420545       16.4019218104
 Ga        25.8463108205       31.5238420702       22.4039979188
 Ga        25.9156402030       31.5086339923       28.5582715601
 Ga        25.9948693595       34.6243361356       19.4507371953
 Ga        25.6818599622       34.4022192644       25.3455402007
 Ga        26.0792712082       37.6725501004       22.5580173738
 Cl        26.6404498834        8.8313305865       24.3166084549
 Cl        28.0297415679        8.6447609105       29.4204974186
 Cl        26.9859245544       12.0668492357       21.2553774881
 Sb        27.3036587770       11.7732949529       27.0309059965
 Sb        27.3786334952       14.8423938133       24.0382282748
 Sb        27.3172869875       14.8476454128       30.1070569037
 Cl        27.6827509767       15.3890354335       36.1375790778
 Cl        26.9407276950       18.0460269404       15.1639173342
 Sb        27.3685929611       17.9135210584       20.8896580255
 Sb        27.3653826501       17.8884555374       27.0502551126
 Sb        27.3810856657       17.8625204976       33.1422180197
 Sb        27.4360154227       20.9249376992       17.8670653843
 Sb        27.3741440248       20.9205803313       23.9792950932
 Sb        27.3857413896       20.9214435263       30.0799586918
 Sb        27.2712353312       20.7758670391       36.1540085713
 Cl        26.8046637710       24.1404166495        8.9510803308
 Sb        27.3837454674       23.9807502001       14.8117619230
 Sb        27.3907841654       23.9915091269       20.9260689981
 Sb        27.4294718689       23.9709999888       27.0424173125
 Sb        27.3521469901       23.9169860084       33.1335820057
 Sb        27.4285483864       26.9823406579       11.7128461819
 Sb        27.3819827841       27.0298090498       17.8491779503
 Sb        27.4049890070       26.9800291285       23.9716529692
 Sb        27.3547330017       26.9302376110       30.0448715550
 Cl        27.1134733118       26.7678368598       35.9149487031
 Sb        27.4530376342       30.0327369874       14.9047872132
 Sb        27.4470898344       30.0359761210       20.9349931278
 Sb        27.3948208557       29.9954831215       27.0381040765
  H        27.7052183163       30.0817862335       31.8270038919
  H        26.8716117975       32.9180007632       13.1719349275
 Sb        27.4888514788       33.1187558740       17.9131096354
 Sb        27.3969242439       33.0259141368       23.9489266065
 Cl        27.1349497808       32.6628379522       29.9057255362
 Sb        27.4668257128       36.1015340227       21.0081280566
  H        26.6748781944       38.3930965140       18.5831265927
 Cl        27.2978316782       38.6470567894       24.0195331440
 Ga        28.8938673967       10.4012192112       28.5576531108
 Ga        28.8709608276       13.2886790190       25.5963619286
 Ga        28.7978105120       13.3637092390       31.6749714046
 Ga        28.7155556693       16.5622550462       22.6475664151
 Ga        28.8676463602       16.3250069549       28.5705870100
 Ga        28.9660080625       16.4063239865       34.7053285036
 Ga        28.9523063613       19.4448970110       19.4403572583
 Ga        28.8776450102       19.3693257195       25.5161890380
 Ga        28.8785431812       19.3648668743       31.6027543761
 Ga        28.8004676879       19.2070605689       37.5932510490
 Ga        28.8773112805       22.5631192084       16.4174619520
 Ga        28.8818023302       22.4725811904       22.4778607582
 Ga        28.9440540966       22.4121959766       28.5646075656
 Ga        28.7960995898       22.3181324662       34.6408213592
 Ga        28.8822322381       25.5240988401       13.2956779339
 Ga        28.8789981776       25.5201285970       19.3771874733
 Ga        28.9541000159       25.5138482748       25.5188810590
 Ga        28.8608991355       25.4331626740       31.5954357030
 Ga        29.1087217917       28.4814996316       10.4020275630
 Ga        28.9656928805       28.5485000427       16.3967302861
 Ga        28.9574887583       28.4872164480       22.4772206560
 Ga        28.8757168362       28.4756223319       28.5571880344
 Ga        28.9567093039       31.5845030130       13.4472043738
 Ga        28.9684139688       31.5990520351       19.4376522051
 Ga        28.8775098317       31.5147050661       25.5136171239
 Ga        29.0420796936       34.6299238367       16.4137521613
 Ga        28.9600445140       34.5597819209       22.4742980222
 Ga        28.8779283129       37.5187314527       19.3627557044
  H        30.5522852249       10.1566466624       33.8946544128
 Cl        30.1068145241       12.0389061888       24.3425571171
 Sb        30.3128653946       11.8365954343       30.2075313021
 Cl        30.5985306916       11.7968183278       35.6031014136
 Sb        30.3842704489       14.8155300550       27.0850529543
 Sb        30.3619729060       14.7960984072       33.1914273494
 Cl        30.8901030813       15.7892489951       39.3272745485
 Cl        30.1794062151       18.2108483953       18.1743129932
 Sb        30.4640827792       17.8869560415       24.0285717965
 Sb        30.3846721449       17.8482556881       30.0840589670
 Sb        30.5401968498       17.9246171457       36.1834888376
  H        30.8985929490       21.1532483527       16.0346049888
 Sb        30.4181731940       20.9686395897       20.9764215221
 Sb        30.4121335089       20.8842044878       27.0259359955
 Sb        30.3955822917       20.8958424705       33.1400976732
 Cl        29.4215958038       20.3166764799       39.3467855401
 Cl        30.1740617663       24.2202985538       12.1416358582
 Sb        30.4253071737       24.0351893136       17.9157520730
 Sb        30.4237955539       23.9587625931       23.9903785156
 Sb        30.4338280155       23.9718152222       30.0909735536
 Cl        29.8598458265       23.5743323927       36.0847691641
  H        31.2192074621       27.1040769127       10.2823149695
 Sb        30.4212748773       27.0447913770       14.8323778792
 Sb        30.4406157435       27.0054255373       20.8847205309
 Sb        30.4670003689       26.9997862975       27.0826218770
 Sb        30.4282361907       30.1804986987       11.8528201684
 Sb        30.4721677606       30.0851956536       17.8858881637
 Sb        30.4446267718       30.0336391708       24.0054322883
 Cl        29.9627658456       29.7230215440       29.9549542946
 Cl        30.6584217926       33.0283005857        9.2306986689
 Sb        30.5011905383       33.1683826062       14.8129028592
 Sb        30.5230582037       33.0822499095       20.9780547003
 Cl        31.0930044233       36.1195650242       12.1684916111
 Sb        30.5300136012       36.1522045225       17.9114298457
 Cl        29.7592244296       39.2431057508       20.2546956573
 Cl        31.3610168359       39.1877130796       15.3958400970
 Ga        31.8403496801       10.3988059766       31.7584758177
 Ga        31.8372509650       13.2919617077       28.6492052295
 Ga        31.9208724499       13.2077541555       34.6220805674
 Ga        31.9196203039       16.3215587003       25.5987792342
 Ga        31.8431490709       16.3268987878       31.6746561053
 Ga        32.0681291100       16.3259496858       37.6008075663
 Ga        31.9185296352       19.4425711305       22.4851103841
 Ga        31.9135874983       19.3553203710       28.5586685222
 Ga        31.9855947140       19.4324478916       34.6314615626
 Ga        31.9117073769       22.4801268521       19.4378672906
 Ga        31.9238685116       22.4139762730       25.5191092744
 Ga        31.8453827634       22.3208370841       31.5204006752
 Ga        31.9124545514       25.5237667120       16.3354056132
 Ga        31.9217055304       25.4345434025       22.3994780734
 Ga        31.9877387873       25.4379718163       28.5582823535
 Ga        31.9141400558       28.6418597499       13.3693243315
 Ga        31.9902066583       28.5491339243       19.3687804052
 Ga        31.9144825221       28.4029233799       25.4311015466
 Ga        31.9217832298       31.6805258494       10.3204261244
 Ga        31.9934332841       31.5860606039       16.3206588963
 Ga        31.9912011570       31.5148038781       22.4789528976
 Ga        32.1607226007       34.6395368403       13.3622463050
 Ga        31.9880199468       34.5511247448       19.3579157655
 Ga        32.2409645079       37.5987173553       16.5663992130
 Cl        32.5382661760        8.6824988117       30.6439691477
 Cl        32.9560303782       11.9046938201       27.4150668106
 Sb        33.5402862676       11.7915327935       33.1101431456
 Cl        33.5014996592       11.9129110725       38.9268812658
 Cl        33.1911154236       15.0792197096       24.3818053439
 Sb        33.3769216966       14.8298646229       30.1265716543
 Sb        33.3696130284       14.6052299960       36.2260608751
 Cl        33.1647966785       18.2084018807       21.2219732357