    2839
 i =       71, E =   -110978.8067998976
 Ga        42.5498671736       24.4736176176       48.3992275065
 Ga        48.6341845538       48.6396083589       30.3336571391
 Sb        44.3836731234       41.4100984917       10.9417379620
 Ga        42.6229715739       42.6304595431       36.6064885216
 Ga        48.7086460703       24.5542539913       18.4597587037
 Sb        47.0043253800       22.9935369312       32.0471286044
 Sb        46.9819811870       22.9650963169       38.0561822512
 Ga        51.3163811791       21.3942320269       36.6732470089
 Ga        48.6158744319       24.5510510100       24.4813399067
 Sb        47.0049394166       22.9365638647       44.0778182290
 Sb        47.3548403725       22.5638609792       50.1112142866
 Cl        46.7501606761       26.4527943935       10.9429268632
 Ga        51.1485661313       21.2186153896       42.7939575799
 Sb        47.1859984410       26.0218480116       16.9041194732
 Sb        47.0986302930       26.0314933339       22.9622493479
 Sb        46.9898636119       26.0282885868       29.0372386064
 Sb        47.0099703271       25.9896295429       35.0244481063
 Ga        42.6152573269       42.6108772348       30.5673185363
 Ga        45.6431777792       21.4681659798       18.3892666954
 Sb        46.9600890961       25.9812365180       41.0311162143
 Sb        47.0927755611       25.9083667050       47.1146176296
 Cl        46.8504477280       25.5975202216       52.4746977564
 Cl        46.1410781995       30.0275447095        7.5547583099
 Ga        45.7046399856       36.8506641768        9.8428145793
 Sb        47.1711062974       29.0569055908       13.8823609428
 Sb        47.0831372854       29.0336270954       19.9586146928
 Sb        46.9906334547       29.0446191235       26.0233476398
 Sb        47.0114371559       29.0045340669       32.0217586820
 Sb        47.0002418812       28.9738192013       38.0177755802
 Sb        49.9586508624       37.9837468861       31.9193100765
 Ga        48.4718977675       24.5573608246       30.5819325110
 Sb        47.0726302838       29.0073284933       44.0834495592
 Sb        47.1159129551       28.8390367745       50.1365377257
 Sb        47.0931078923       32.2185890356       10.8923311617
 Sb        47.0497378224       32.0525010975       16.9277987176
 Sb        47.0154329010       32.0564492188       22.9877092019
 Ga        51.6459981049       24.6457644840       21.5625579022
 Sb        44.0513399578       41.0739134407       16.9350943902
 Sb        47.0257035797       32.0537770439       28.9840172540
 Sb        46.9905941824       31.9972007034       34.9977988991
 Sb        47.0902762914       32.0388269734       41.0437055936
 Sb        47.1863616868       32.0055454284       47.1325912410
 Cl        46.1444508292       31.0372220048       53.4845652178
 Ga        51.3985028049       24.6408522058       27.6556190230
 Ga        42.6193459876       42.6240296833       42.6163815913
 Cl        46.8210924967       35.4261848886        8.4933697703
 Sb        47.0733040061       35.1592526910       13.8682128840
 Sb        46.9677608446       35.0662658509       19.9786718924
 Sb        47.0632293146       35.0868649174       25.9631594385
 Sb        46.9964128715       35.0188267172       31.9773292450
 Ga        51.3253281523       24.4865078260       33.5956149303
 Sb        47.3372363030       50.0961893458       22.4929865023
 Sb        47.1044139999       35.0375928862       38.0407413518
 Sb        47.1898512428       35.0509199472       44.1018554672
 Sb        41.0353803403       31.9957556276       17.0110273957
 Sb        47.3382311300       38.4735106208       10.8635769064
 Sb        46.9819645800       38.1012778209       16.9208264002
 Sb        50.2287043736       37.9670605448       37.9255376210
 Sb        47.1106263140       50.1233727279       28.7530216030
 Sb        47.0132550969       38.0820882455       22.9459215712
 Sb        46.9948595142       38.0394911714       28.9506302229
 Sb        47.0909790900       38.0413899276       35.0405074980
 Sb        47.1990062555       38.0670759475       41.0775120492
 Cl        46.8955168225       37.7151844736       46.9102585591
 Ga        51.6546621402       21.7122767633       24.7206960313
 Cl        46.7685824816       50.0543091272       34.5377405405
 Ga        45.4776842066       30.5754109309       27.4927864676
 Cl        46.8374850282       40.7367119694       14.1220855507
 Sb        47.0683262506       41.1193403656       19.8734070414
 Sb        47.0023634158       41.0570310607       25.9151403382
 Sb        47.0583747402       41.0531470852       32.0087503617
 Sb        44.0289044150       41.0512954167       22.9463434441
 Sb        47.2087160526       41.1022957981       38.0543567396
 Cl        46.9332166435       40.7582262755       43.8313099270
 Ga        42.5380962652       27.5739101845        9.4378637130
 Sb        47.2452486233       44.2770813259       16.7598649676
 Sb        47.0086136105       44.0773805946       22.8585756560
 Sb        44.0432359245       41.0572635285       29.0062253080
 Sb        47.0743718770       44.0736758499       28.9550837989
 Sb        47.2053096905       44.1358169685       35.0000836762
 Cl        46.9251905006       43.8114624960       40.7874523267
 Sb        44.1227570184       41.1065398836       35.0793003665
 Sb        40.9903369779       32.1221764707       11.0349895793
 Ga        42.5386050469       45.5415813175       21.3966949089
 Cl        46.7994855214       46.8066233134       20.1173589436
 Sb        47.1089577973       47.0850011994       25.8173278015
 Ga        48.4672738972       24.4832227187       36.5914386240
 Cl        46.8362554670       52.4336558347       25.4973801375
 Sb        47.1753334471       47.1489132300       31.9254178032
 Sb        41.0339550205       32.0050804562       22.9758436131
 Ga        48.4037832296       24.4721652440       42.5522076188
 Ga        51.4148778905       48.6397274311       27.0638826738
 Ga        51.3205076326       42.6234966339       27.3265707423
 Ga        48.6330330442       24.3142836530       48.6333490556
 Ga        45.5497287225       36.5216618980       15.4501778997
 Ga        45.4733333131       36.5896102494       21.4724224951
 Sb        47.1788237232       19.9394865991       22.9298071426
 Sb        44.0519025223       16.9796704142       35.0270329169
 Sb        41.0497239752       35.0553421884       14.0526688580
 Sb        47.0740743355       19.9899358902       29.0171043509
 Sb        44.0502195369       16.9815890505       41.0797877300
 Sb        41.0413463221       35.0224879323       19.9868719317
 Cl         7.7602982373       11.7754654733       27.9752819722
 Sb        46.9760711163       19.9767500846       35.0578328714
 Sb        44.2533892724       16.7646702153       47.2266219729
 Sb        40.9965844062       35.0187487235       25.9917501729
 Cl         8.5299664042       14.1625734551       25.5871600037
 Cl         7.5999897008       14.8510190283       31.0269466622
 Ga        42.6169315259       27.4242311256       15.3769740196
 Sb        41.0319910326       35.0666283673       32.0077023849
 Cl         8.5937626655       16.9663405578       22.8864116658
 Cl         8.3722470031       17.2138653430       28.6690031817
 Cl         7.4801062896       17.9787386746       33.9505160384
 Cl        43.8249581660       20.2479361455       14.0658966548
 Sb        41.0926296716       35.0773716108       38.0713326902
 Cl         8.6849870791       19.8579975912       19.8496465707
 Cl         8.2650827590       19.7924091306       26.0947486061
 Cl         8.3099790757       20.3296957417       31.5948434880
 Cl         7.4864930399       20.9884939050       36.9918114872
 Sb        41.0883932632       35.0688302704       44.1038167704
 Cl         8.6054274933       22.8867472544       17.0055090678
 Cl         7.9750655492       23.4985011983       22.3437932383
 Cl         8.4666625779       23.0129793741       28.9201436019
 Cl         8.3092654167       23.3408772725       34.6405030879
 Cl         7.4877093516       24.0287458565       40.0124457592
 Sb        40.9954349328       34.9730617191       50.1844473352
 Cl         8.5284032024       25.5657247831       14.1737065892
 Cl         8.3992925818       26.0004381326       19.8654255037
 Cl         8.3677126497       25.7775571533       26.1637123477
 Cl         8.2941410698       25.9664798476       32.0274594866
 Cl         8.1832690738       26.4940206533       37.5257959856
 Cl         7.4885389760       26.9853938206       43.1051910243
 Cl         7.7419852282       27.9435416225       11.7811877484
 Cl         8.3678395879       28.6246142322       17.2058684519
 Cl         8.2946833790       29.0365974291       22.9070005346
 Cl         8.3306476485       29.1365467379       28.8733211538
 Cl         8.4049119759       29.1324898076       34.9223978291
 Cl         8.3123211248       29.3769056478       40.7394256463
 Cl         7.5559641592       30.0548505288       46.1694651376
 Cl         7.5736527261       31.0049706217       14.8315195576
 Cl         8.3185962190       31.6422221610       20.2631200148
 Cl         8.4192764003       31.8685111983       26.1338342206
 Cl         8.3366882776       31.8731675434       32.2261502590
 Cl         8.2981604532       32.0071820292       38.1042081185
 Cl         8.3314938391       32.4297445130       43.7612609778
 Cl         7.7417000916       33.0752230205       49.2978038125
 Cl         7.4971135026       33.9915246217       17.8970740292
 Cl         8.1292224536       34.4757396174       23.5229666047
 Cl         8.2895295373       35.0850197668       28.9955036407
 Cl         8.3519150835       35.2289065786       34.9242888796
 Cl         8.4723068391       35.1638986734       41.0085974276
 Cl         8.5098380070       35.4437442400       46.8560952766
 Ga        45.5461660030       30.7470256302        9.4340678371
 Cl         7.4065514583       36.9686327199       20.9807115735
 Cl         8.3133604795       37.7127506303       26.3489964760
 Cl         8.3681237889       37.8880084853       32.2625761803
 Cl         8.4849526488       38.1023835501       38.0978598859
 Cl         8.5687451452       38.1724209798       43.9984185150
 Sb        44.0694545297       14.0448467230       38.1164169977
 Cl         7.4816408943       40.0791493132       23.9965438480
 Cl         7.9039377846       40.3408606574       29.7401614904
 Cl         8.4298253824       40.9564002210       35.2241300455
 Cl         8.6348299492       41.1371231696       41.1584644177
 Cl        43.8637976280       52.6270738582       28.6546257092
 Sb        44.0426159032       26.0225821872       44.0388911905
 Cl         7.4464865089       43.0633866095       27.0750853930
 Cl         8.1974523643       43.6666581037       32.4861151165
 Cl         8.5750773469       43.9953164093       38.1660198285
 Sb        44.2410703203       13.7645445605       44.2388666174
 Sb        44.0825733139       25.8359755695       49.9538904745
 Cl         7.5216152956       46.1648261110       29.9649618441
 Cl         8.5056882194       46.8590475888       35.4277919077
 Ga        48.6405756387       45.5404787904       21.3827240015
 Sb        44.0492518765       29.1337515874       10.8396616018
 Sb        44.0853713119       28.9924837290       16.8996762516
 Cl         7.7449399501       49.2496029847       33.0504281418
 Ga        48.5446612726       45.6160797312       27.4036181950
 Sb        44.0619882102       29.0050370117       22.9853984169
 Sb        43.9974099686       29.0424459290       28.9934927641
 Cl        49.2087846362       53.2627147301       27.8714230640
 Sb        43.9853293298       29.0041794563       35.0162950284
 Sb        44.0479198995       29.0654592407       41.0349703765
 Ga        48.7092975790       27.5713242139       15.4467828131
 Ga        48.6213716941       27.5649775408       21.4759269702
 Cl        52.3175410732       41.1437380272       19.7672063467
 Cl        52.7390253117       41.2694113368       26.0854708584
 Cl        52.6882367757       40.6949740297       31.5878700421
 Ga        45.6294712749       21.4085663878       24.4035096957
 Sb        47.0491374228       19.9232165567       41.1142694377
 Sb        44.1440073027       19.9226966229       19.8910643756
 Sb        41.1281515816       38.1404958864       11.0453598802
 Ga        51.2443125563       24.3966896362       39.6154778766
 Cl        46.8631819025       20.2965623533       46.8546934047
 Sb        44.0933294372       19.9466341558       25.9491354101
 Sb        41.0428089752       38.0404917883       16.9817605139
 Ga         9.5925559624       12.3681702429       27.0839368788
 Ga        51.1546726411       24.1552159842       45.7027658308
 Cl        53.5256596214       34.0036252964       43.1095602371
 Sb        44.0337236929       19.9626219882       31.9907908259
 Sb        41.0125737830       38.0343945771       22.9710187168
 Ga         9.8495464174       15.3554974458       24.1530519273
 Ga         9.4325728126       15.5265907995       30.2480213701
 Ga        42.6105244236       27.4756415546       21.4605761212
 Sb        44.0253310456       19.9577927993       38.0531820598
 Sb        41.0213461555       38.0617062017       29.0057337757
 Ga         9.9335446276       18.2161689176       21.2207561690
 Ga         9.6802662399       18.4508812196       27.3331421063
 Ga         9.3562391558       18.6221616324       33.2629818548
 Cl        50.1718638257       37.5860974532       43.6583694031
 Ga        42.5506037781       45.5451055728       27.4846978213
 Sb        41.1015059570       38.0961315679       35.0812344697
 Ga         9.9236728986       21.2248698521       18.2855405448
 Zn         9.6084936467       21.0616576928       24.6530723149
 Ga         9.6808777582       21.5622117787       30.3352321586
 Ga         9.3508069840       21.6438637411       36.2796225695
 Ga        51.6485619027       27.7402707467       18.5516566631
 Sb        41.1028112216       38.0895441022       41.1035534273
 Ga         9.8502303143       24.1480717944       15.3646861194
 Ga         9.5862325106       24.4791468366       21.3061372437
 Ga         9.7414943271       24.4836714558       27.4091356752
 Ga         9.6054869873       24.6364485326       33.3492391168
 Ga         9.4305125062       24.5655281909       39.4461320886
 Ga        51.4014273254       27.6624652243       24.6391140601
 Cl        52.3950092779       38.1324565747       16.9419504322
 Ga         9.5890217411       27.0754402050       12.3618910990
 Ga         9.6866436139       27.3276496908       18.4572858426
 Zn         9.5270747267       27.4873839058       24.3977467407
 Zn         9.5189333897       27.4936244638       30.4947782265
 Ga         9.6030882696       27.6562756124       36.3587197050
 Ga         9.3614804635       27.6668318843       42.4529227698
 Zn        51.4834510131       27.4931642601       30.5032210258
 Cl        46.2229749840       53.3874534432       31.0406089379
 Ga         9.4310695950       30.2527227234       15.4594708911
 Ga         9.6074048206       30.3428801306       21.5558240039
 Ga         9.6859034021       30.4222734778       27.5658562995
 Ga         9.6861219465       30.5780160540       33.4989808186
 Ga         9.6010957036       30.6573466578       39.4456008525
 Ga         9.4379727302       30.7439230220       45.5454093437
 Zn        51.4835476600       27.4944365637       36.5948439124
 Sb        44.1325850557       41.1059605507       41.0996698510
 Ga         9.3576598233       33.2679190682       18.5498892952
 Ga         9.5959093275       33.3398101669       24.6438873774
 Zn         9.5231392398       33.5829162372       30.4986952936
 Zn         9.5182117579       33.5086333663       36.5914148086
 Ga         9.6857094789       33.6861285795       42.5397391654
 Ga         9.5920502218       33.9199693259       48.7080949692
 Ga        51.4046554331       21.6344447037       30.6717701066
 Cl        43.8154339885       40.7583317561       46.9465086892
 Ga         9.3647858845       36.4303961860       21.4751580147
 Ga         9.5997916946       36.4221096397       27.6475740389
 Ga         9.6772501813       36.5091358818       33.6062979441
 Ga         9.7577603766       36.6068007400       39.6157455053
 Ga         9.8466070681       36.8506654770       45.7068085090
 Ga        42.4481613466        9.3599218687       27.7355775803
 Ga        42.6223804549       45.6318585882       33.5861993633
 Ga         9.3462772224       39.3636447005       24.6475179353
 Ga         9.5143948238       39.3692737259       30.7482034298
 Ga         9.6838019660       39.6053299541       36.6761527391
 Ga         9.8491786401       39.7864999326       42.7920971604
 Ga        42.6161479130        9.7582634594       33.6833365887
 Ga        45.4789256857       36.5201442779       27.4817675374
 Ga        48.6310952556       51.4133879708       27.0021551375
 Ga         9.4419089410       42.6177699714       27.4871936185
 Ga         9.6090006906       42.5338855243       33.6881054604
 Ga         9.8532319757       42.7883145185       39.7850197822
 Ga        42.7936799117        9.9334778854       39.7817255465
 Sb        44.0715875862       29.0175486489       47.0652847063
 Ga        42.6231648144       45.6993635581       39.6013704929
 Ga         9.4398474618       45.6291988676       30.5998433243
 Ga         9.8468014926       45.7059076893       36.8484854817
 Sb        49.9014395225       35.1956795647       16.8946538530
 Cl        43.6527567232       28.5513553279       52.7353143871
 Ga        45.5548123200       36.5859368842       33.5141498156
 Sb        50.0587262375       35.0522263548       28.9819325232
 Ga         9.5828880290       48.6414888065       33.9188101571
 Ga        48.6327958695       48.6308369217       24.2302618419
 Cl        43.7375730213       32.4123015274        8.3298417793
 Sb        44.0460926536       32.0425042006       13.9429525120
 Ga        48.6360089120        9.6011576267       33.9310201022
 Ga        51.5634890799       18.4679479378       27.5676311742
 Sb        44.0354002769       31.9892349327       19.9600721851
 Sb        44.0134927597       32.0642058543       25.9689999078
 Ga        48.4714483831       27.5772095964       27.5710443007
 Ga        48.5268212100       27.4871272373       33.5151529529
 Ga        45.4715765669       30.5018134657       33.5084125684
 Ga        51.6437478157       42.4460601461       33.2676375366
 Ga        48.4708857333       27.4168937661       39.5195723676
 Ga        42.5386736359       27.4896397322       27.4904077014
 Sb        44.0591626284       19.9622022157       44.0472578465
 Sb        41.0739469053       38.0818408167       47.1775030136
 Cl        11.7986672527        7.6816362602       27.9610297592
 Cl        46.9064218826       23.3421298801       14.1169229214
 Sb        44.4263977131       19.5997971118       50.0580516511
 Cl        40.0132412447       37.0125022894       53.5342420951
 Sb        10.7443151727       10.7209303016       25.4828311241
 Cl        17.1572623103       43.8416895120       17.1680994616
 Cl        43.6627256272       23.4214200239       10.8894897138
 Cl        41.1568058230       41.1394962909        8.6188637788
 Sb        10.8923706480       13.6807003350       22.5712903129
 Sb        10.8812600771       13.9313819959       28.8031485225
 Cl        10.9503261775       14.2854492255       34.5286908773
 Sb        44.1306821657       22.9566790471       16.8641789944
 Sb        41.1241813616       41.0895847937       13.9650604293
 Sb        10.9372310037       16.6017462272       19.5512047932
 Sb        11.0772961980       16.9230023181       25.8497188566
 Sb        10.8275536666       17.0038274460       31.8700245192
 Cl        10.8428228308       17.3569322289       37.6062627699
 Sb        41.0313987077       41.0307130137       19.9689090691
 Sb        10.9288960730       19.5955015743       16.6376294572
 Sb        10.9744369244       19.9060560002       22.8755508525
 Sb        11.0612701779       19.9976531851       28.8710516341
 Sb        10.8046118452       20.0333451236       34.8891524281
 Cl        10.8803592502       20.4174606767       40.6439067068
 Sb        41.0320655008       41.0364039953       25.9839196276
 Sb        10.9097864021       22.5628924200       13.6969822709
 Sb        11.0425482058       22.9173563274       19.9021081341
 Sb        10.9502520410       22.9017378338       25.8594561704
 Sb        11.0408413995       23.0571339632       31.9179002558
 Sb        10.8221007073       23.0334153529       37.9181268304
 Cl        10.8974117584       23.4157979911       43.6663687716
 Sb        10.7447964340       25.4706180435       10.7209893022
 Sb        11.0792273985       25.8377860739       16.9377450259
 Sb        10.9285135925       25.9618750919       22.9145412738
 Sb        10.9770227252       26.0355278602       28.9888036439
 Sb        11.0303894895       26.0800642670       34.9250296237
 Sb        10.8258927419       26.0888860847       40.9952594154
 Cl        10.9534394709       26.4406986568       46.8006318284
 Cl        11.7794147196       27.9496154865        7.6835191450
 Sb        10.8747488137       28.7913324613       13.8997625754
 Sb        11.0346699459       28.9030195289       19.9877900457
 Sb        10.9598896527       28.9143801946       25.9771940000
 Sb        10.9635957699       29.0119296825       31.9590450934
 Sb        11.0086521081       29.0911786021       37.9683146868
 Sb        10.8290442117       29.1116204926       44.0489371481
 Cl        11.1517894727       29.5852707000       49.9518870525
 Cl        11.0733415922       31.4776297057       11.1153599588
 Sb        10.8355084775       31.8662066398       16.9529143292
 Sb        11.0163548734       31.9079722273       23.0503955019
 Sb        10.9605221472       32.0141960161       29.0774458999
 Sb        10.9845685576       32.0886655472       35.0600577923
 Sb        11.0233041160       32.1086908606       41.0111574566
 Sb        10.8719200663       32.2181279211       47.1339822743
 Cl        11.8208807067       33.0843110419       53.2812568293
 Cl        10.9566079700       34.5509554145       14.2354521733
 Sb        10.8105899247       34.9036788083       19.9754772896
 Sb        11.0015148788       34.9298292310       26.0926954769
 Sb        10.9841876029       34.9998896099       32.0417952549
 Sb        10.9644556224       35.0417487827       38.0299005023
 Sb        11.0570905010       35.1974770150       44.0815507911
 Sb        10.7549234036       35.5681399335       50.2928089775
 Cl        10.8911030490       37.6189149061       17.3161934275
 Sb        10.7786268465       37.9491098157       23.0252681201
 Sb        10.9707539149       37.9763168254       29.1473736787
 Sb        11.0288781131       38.0566847103       35.1215337655
 Sb        11.0532300007       38.1598600563       41.1451117585
 Sb        10.8743513924       38.4801219844       47.3440424244
 Ga        42.5489620203       12.3605783115       24.4876585913
 Cl        10.8214871454       40.6197051228       20.3369353070
 Sb        10.8157110480       40.9719696618       26.0620515580
 Sb        10.9703819283       40.9922765218       32.1246846414
 Sb        11.0585977842       41.1080407942       38.1909276347
 Sb        10.9404325415       41.4197064177       44.3847090244
 Ga        42.5516409669       12.4554862828       30.5044276653
 Cl        10.8689199589       43.6558065659       23.4454366835
 Sb        10.8509624041       44.0597397426       29.0905215692
 Sb        11.0186555240       44.0752328298       35.1780158055
 Sb        10.9403176014       44.3860076912       41.4170207612
 Ga        42.5506501121       12.6066850800       36.6000269191
 Sb        43.9877241526       32.0142702491       32.0035066790
 Cl        10.8999368786       46.7565981491       26.4440097825
 Sb        10.8575067300       47.1141077871       32.1800878129
 Sb        10.8743419385       47.3448912692       38.4730518841
 Ga        42.6321770111       12.5166183663       42.6290064790
 Sb        44.0577763260       32.0721360216       38.0276428962
 Cl        11.0900114700       49.9340477060       29.4994969308
 Sb        10.7428363751       50.2605679552       35.5394601961
 Ga        42.6372233152       42.6243845468       12.4500987232
 Sb        44.0906373464       32.0508857916       44.0896987266
 Sb        44.0542048108       31.9110384360       50.1464409485
 Cl        11.7793492460       53.2577957567       33.0460236587
 Cl        46.8304996465       14.2483811533       40.8456467022
 Sb        44.0580591762       35.2049964573       11.0406304159
 Sb        44.0481204556       35.0257199827       16.9742406396
 Sb        44.2168286743       44.2438568023       13.7332615707
 Cl        53.5167871272       40.0387958076       36.9865036913
 Sb        44.0461317220       44.0518255928       19.9173121636
 Sb        50.0721525765       35.0982977312       22.9032562334
 Cl        52.4016295249       44.0677615067       22.8056051631
 Sb        47.2042646972       22.9941192149       19.9359314040
 Sb        44.1123540716       22.9619716051       22.9313367679
 Sb        41.1011714228       41.1041218989       32.0699809388
 Ga        12.3669531258        9.5263257390       27.0845723273
 Ga        51.3194858506       27.3217193458       42.5402124957
 Cl        53.0369697114       37.5632288329       22.3222562282
 Sb        44.0405293106       22.9691105379       28.9799631252
 Sb        41.0949822454       41.1222339357       38.1005501888
 Ga        12.3663975858       12.3709938908       24.3036006957
 Ga        12.3703112747       12.4361149230       30.4061433902
 Ga        51.4841362654       27.0832541277       48.6349069103
 Sb        43.9897254161       22.9955093085       35.0268471931
 Sb        41.1010920900       41.1077221500       44.1277285451
 Ga        12.3641974489       15.4501537413       21.4061640150
 Ga        12.5158858247       15.4404379798       27.4760553349
 Ga        12.3576761339       15.4454774069       33.4350562109
 Ga        45.6420536085       36.5997691548       39.6074999713
 Cl        49.2267715688        7.7506623587       33.0831181112
 Cl        40.6147552765       40.6165670960       50.1793405506
 Ga        12.4550935235       18.3773146599       18.3732000100
 Ga        12.5335051087       18.4655510817       24.3883380326
 Ga        12.4493802246       18.4624822333       30.4937857384
 Ga        12.2879261874       18.4591363584       36.5141764762
 Cl        43.8458604168       17.1635915846       17.1637497206
 Sb        41.4725072536       44.3891718114       10.9311981878
 Ga        12.3563473074       21.4655954442       15.5239420739
 Ga        12.5256682310       21.4622669148       21.4697239114
 Ga        12.5325536012       21.5455399424       27.4036517505
 Ga        12.4431148999       21.4754678832       33.5037217272
 Ga        12.3514135996       21.4678158241       39.5270103361
 Ga        51.5729318328       30.8262576822       15.5314357548
 Ga        42.4723405509       27.4927503528       33.5128618047
 Ga        12.3719292355       24.2994470301       12.3744248797
 Ga        12.5984590902       24.4091789472       18.4607263699
 Ga        12.4523062002       24.4775120291       24.4046682433
 Ga        12.5290817814       24.5561650080       30.4216743167
 Ga        12.4383230549       24.4889452913       36.5149025042
 Ga        12.3539423550       24.4877505977       42.5504887098
 Ga        51.3995790548       30.6683732941       21.5487639963
 Ga        12.3658227353       27.0774009859        9.5243430812
 Ga        12.4637513415       27.4698241122       15.4433355165
 Ga        12.5285299943       27.4134071447       21.4820466058
 Ga        12.5209701224       27.4864295931       27.4846817998
 Ga        12.5266072365       27.5735044111       33.4356665817
 Ga        12.4376922206       27.4961504067       39.5268329874
 Ga        12.3597549315       27.5061572608       45.6237498081
 Ga        51.3163150013       30.5809626290       27.5013981810
 Ga        45.6331675484       18.3900573854       21.3941258057
 Ga        12.3729030514       30.3428346259       12.3622537903
 Ga        12.4440610624       30.4976149090       18.4532530853
 Ga        12.5227366964       30.4209793825       24.5536587246
 Ga        12.5171043668       30.5017407702       30.5034800013
 Ga        12.5257036264       30.5775800438       36.5027933192
 Ga        12.4420396606       30.5048412526       42.5561778525
 Ga        12.4356271263       30.6619674257       48.6353373016
 Ga        51.3168509478       30.4275841357       33.4321052723
 Ga        42.5341654477       27.5635473848       39.5307728319
 Ga        12.3581376662       33.4295919179       15.3719203522
 Ga        12.4279996597       33.5117811624       21.4764902008
 Ga        12.5224944645       33.4342480456       27.5700093627
 Ga        12.5196487031       33.5116807654       33.5158647382
 Ga        12.5263503801       33.5904962127       39.5252750688
 Ga        12.4542465051       33.5904277996       45.6228220723
 Ga        12.3701948195       33.9250523711       51.4164895004
 Ga        45.5441817177        9.4415573277       30.7497850261
 Ga        12.3502173807       36.5096492814       18.3868836022
 Ga        12.3736432725       36.5114567624       24.4843880378
 Ga        12.5257580244       36.5024316808       30.5836250454
 Ga        12.5303842443       36.5186870909       36.5925295059
 Ga        12.5952190755       36.5971365472       42.5486671741
 Ga        12.3713297267       36.7632388899       48.6365771059
 Ga        45.6383776245       36.5904854182       45.6277292080