     282
 i =        1, E =     -8253.5580038968
 In        26.4779452733       23.5785696623       14.2042239641
 Cl        19.9595354370       25.0275875168        6.9198421180
 In        23.5959781048       14.6840186081       14.5410832659
 As        19.0243352077       24.8799412174       13.0252391559
 Cl        21.8875007804       27.6610683410       13.0110225371
 As        19.1374789130       12.9149776487       18.9400881948
 As        22.2122017674       15.7933825946       25.0044048240
 As        19.0544951463       12.8408238041       24.9499517718
 Cl        28.3105715774       10.5301620073       19.3154916392
 In        17.7369717003       26.5448497124       20.5644271511
 In        17.7411065784        8.4470418408       14.3002497111
 Cl        28.3496857418       13.7587655723       16.1733519506
 Cl        27.8290583690       13.0481707687       21.9607219745
 Cl        17.7206721192       28.2043594373       13.0283501993
 As        15.9301859307       25.0774675072       16.0777337812
 Cl        28.2943023314       17.5297195568       12.9504834670
 Cl        27.8723971168       16.0027323046       19.0544948715
 Cl        28.2288723387       15.6395770853       24.6445643968
 Cl        18.6511927876       28.2526502335       21.7903130959
 Cl        28.1470373123       19.7561938592        9.8789260161
 Cl        27.6258417482       18.8928610098       15.9556702042
 Cl        28.3649483445       18.7087867856       21.5577385818
 As        19.1215646134       25.0105707634       19.0085688601
 Cl        18.0185361813       22.0115856978       28.1579475596
 Cl        27.7807883944       21.7344462011       12.9840764696
 Cl        28.3378336259       21.7283482555       18.4610784768
 In        20.4108386896       17.3369314323        8.3638357314
 In        23.6628607771       14.5127009558       20.5340687539
 Cl        28.1857365767       24.6364226953       15.3368238862
 Cl        19.8733669135       28.0451226494        9.8737092759
 In        17.4154513143       14.3442079818        8.4370838317
 Cl        19.0861220912       27.6637601575       16.1081133467
 As        19.0185665771       22.0360504273       15.9947914011
 In        20.5581085230       17.4959971742       14.4617098922
 In        20.8143393785       17.2456258777       26.5612904464
 In        17.5965832993        8.3512518048       20.4004924437
 As        16.1578088755       25.0176835250       22.0025700423
 Cl         6.8414880802       10.2016612336       14.9805753797
 Cl        24.6553845265       21.8447766838       10.0100508759
 In        20.4907005609       20.4562895387       11.4241765626
 Cl         7.3551957802       13.4331641833       12.9904643369
 Cl         6.7202272255       13.3328939527       18.5891494919
 As        25.2100411626       21.9739308000       15.9146043824
 Cl         6.6874990510       15.3034246770        9.9811534271
 Cl         7.3309168315       16.0755372890       16.2108475484
 Cl         6.8421667191       16.4884565907       21.8492485661
 Cl        21.8500118911       28.1734411975       18.6132553581
 In        23.5111752459       17.3373220700       11.3480129630
 Cl         6.9120554782       17.6562415230       13.0491905130
 Cl         7.3500935367       19.0112017332       19.2298139902
 Cl         7.2678393389       19.8869159748       25.2792349704
 As        25.1618438512       15.9661778137       22.1012321669
 In        23.5792741427       17.5729684526       17.6546167243
 Cl         6.6349285997       21.3422485295       16.4645651568
 Cl         7.4702641488       22.0664398007       22.2281415163
 Cl        16.1223101521       27.7731270132       19.0994468754
 In        23.6048675651       17.4809638533       23.5333849580
 Cl         6.8284884482       24.5390781538       19.5936969873
 As        22.1686541975       25.0623803841       15.9221431726
 In        17.5835387620       14.4576009423       14.4624546261
 As        18.9149410939       15.9215401832        9.9050790845
 As        21.8953447824       18.8676569247        9.9150201641
 In        20.4925668453       20.4718718768       17.5040573354
 As        25.2872559954       25.1147377352       12.4818314565
 In        20.4889958416       20.3679702111       23.5088708338
 In         8.3596901473       11.8239127614       14.4561828307
 Cl        15.3218791581       27.8787760518       25.1996930324
 In        23.4243737630       20.2283697490        8.4371706350
 In         8.1077126082       15.8534152798       11.6642222549
 In         8.5356322995       14.4390104158       17.7388415372
 In        17.5884451944       14.3671282096       20.4729788108
 In        23.5965597477       20.4508083891       14.5294020007
 In         8.7039635764       17.5001722009       14.7220505906
 In         8.6030717350       17.4201576062       20.7238786055
 As        19.0973236019       21.9827606462       21.9942680481
 In        23.6691017213       20.5439834147       20.5699220777
 In         8.4518315734       20.6317844690       17.6669264866
 In         8.6954083577       20.4515828288       23.5972132538
 Cl        24.7393754568       28.0490573729       15.3543914928
 In        20.5718277576       17.4883930594       20.5638711367
 In         8.6757506053       23.7533261838       20.7183665072
 Cl        21.7308270889        6.6691534909       16.2272928603
 In        23.9195486767        8.5956284820       20.4827767613
 Cl        22.2497827384        7.2918144618       22.0245777507
 In        23.5876647562       23.4165801269       11.6655495421
 In        17.5886857826       26.3196302677       14.6110629240
 As        19.0915022055        9.9162091539       21.8510358341
 In        20.4702160967       23.4154203498        8.4431552023
 Cl         9.8045223979        7.0799729862       15.1658222469
 As        22.0558276109       18.9804788762       16.0312266491
 In        20.6321007683       23.4851341348       14.5284389376
 Cl         9.9063954317       10.5335094868       12.8728267706
 In        17.4235101189       23.5068490952       11.4245692718
 As        25.1661056566       19.0197352122       19.1066462840
 In        20.6368964074       23.5036037430       20.5383860725
 Cl        10.3117516203       13.0943892998       10.1628916569
 As         9.9600660812       12.9569271802       16.1159817044
 Cl        13.2907151271        9.7579478175       21.6891271156
 As        22.1149835874       19.0294521072       22.0244040166
 Cl         9.8680047272       15.2516505255        7.0766533605
 As        10.1302840852       15.9880887312       13.1910070265
 As        10.0662665905       15.9617271961       19.1491622734
 As        18.9833523607       21.9946907012        9.9389531694
 Cl        19.2030033913        7.2005698693       18.8796100391
 In        23.3550881583       23.1772571793       17.1833343298
 In        17.5186248182       23.5700870792       17.5060351312
 As        10.0003059713       19.1112924538       16.1782075941
 As        10.1579717972       18.9721628607       22.1261283947
 Cl        10.1764757778       19.8110904124       28.2547804196
 Cl        19.8693338268        6.8574205668       24.8894998851
 Cl        13.1067574189       21.7637798417        9.9849356936
 As         9.9946770737       22.1204571603       19.1109623044
 Cl        10.3094103541       22.0761330359       24.7414481917
 In        17.5913617883       14.2645184836       26.5599867019
 Cl        22.0524699910       24.6000972214       10.0278259704
 In        17.5770843327       23.4156075958       23.5083873863
 As         9.8246167522       25.3742319827       22.3556354280
 As        19.0558555871       15.9928397821       15.9911007737
 In        23.7644191036       26.3139395968       14.1914212545
 Cl        10.6355565486       28.3347302444       19.5213176656
 Cl        18.6903836541        6.6354647286       13.2662499272
 In        20.8023635299        8.4397123153       17.3402467021
 As        22.2389956352        9.9039204393       18.9169304689
 In        20.4781976621        8.3475076231       23.2758709470
 Cl        21.3533798108       18.6594445785       28.2883157896
 In        23.8482572947       14.1939200237       26.3268263979
 In        11.9115765330        7.9347674146       15.2749459104
 As        19.0714319584       15.8780238958       22.0075018216
 In        19.7442462755       27.0539145268       11.9148124991
 In        11.7562989016       11.4172028875       11.4233706439
 In        11.4996286075       11.4023804645       17.5862851070
 In        26.5774497845       11.3088196066       20.6285626084
 In        11.5071472063       14.5995194831        8.5232951544
 In        11.5629269350       14.3409449687       14.6362362268
 In        11.5740235209       14.3611439648       20.6272476259
 Cl        22.0877954930       21.9906691859        7.2474479033
 In        23.6890667985       11.4983511697       17.4292428486
 In        11.5028657216       17.4924677947       11.5842287232
 In        11.5020601953       17.4930452517       17.5840704454
 In        11.5753731800       17.3454306388       23.6694632037
 Cl        19.2054560765       15.7277873161       27.7837665639
 In        17.5105884525       17.3226848417       23.5104199073
 In        11.4842341416       20.5602594632       14.5331476773
 In        11.5137992201       20.5251092325       20.4957247715
 In        12.3143904270       19.7693497425       27.4671042550
 Cl        18.9331722180       19.0053786544        7.1777454159
 In        11.5011571048       23.5777927936       17.5087463549
 In        11.4974057336       23.6629635531       23.1690694633
 Cl        21.9329805825       10.0677906544       24.6550480971
 As        22.0200129147       21.8949026599       12.9971190470
 In        11.4007287380       26.4797231697       20.6509628445
 In        20.6467519389       14.3719678765       23.5022761349
 As        18.9965999541       18.9958863306       12.9630566975
 In        17.4195966877       20.5401281113        8.4313162805
 In        20.7248175503       26.4667629225       17.5873382179
 As        24.9379132643       18.8465617964       12.9618638897
 In        26.6458907608       14.3522045390       17.5971017804
 In        20.6460539084       11.4820365977       14.3748182208
 Cl        13.0307675657        7.1785732253       13.2175429426
 Cl        16.6108213333        6.5379077312       21.4052856774
 In        26.5652896697       14.3482755339       23.6935329196
 Cl        18.5304207934       13.5134470651        6.6235162164
 As        12.6271861078        9.6344636242        9.8501158217
 As        13.0759445449       10.0929667289       15.9363698323
 In        17.4968345746       20.5368552708       14.4536676441
 As        22.0616675057       21.9508744295       19.0093360164
 Cl        12.8184327774       12.9126216700        7.3774323881
 As        13.0637402427       12.9855749987       13.0038283346
 As        13.0495098117       12.9031687437       19.0384023246
 Cl        13.0202668562        6.7399162233       17.2656751648
 As        16.2193944336       21.8207426821       25.0047846754
 As        13.0005776693       16.0534386803       10.0000844731
 As        13.0118450921       15.9878580810       16.0423304568
 As        13.0705431657       15.9084293563       22.0997747777
 Cl        13.3440557001       17.5936978666       28.3965283140
 Cl        13.2229195565       18.5240021762        6.7564279890
 As        12.9770782232       19.0629148172       12.9832391598
 As        13.0576464690       18.9927981155       19.0452728086
 As        13.0765812290       18.9420895702       25.1341372007
 Cl        25.0262810468       19.8349085787        6.8694028746
 Cl        24.6822028339        6.7378026234       19.3384653111
 Cl        16.5078268776       21.7518064543        6.7121691110
 As        13.0071192371       22.0624268177       16.0149408129
 As        13.0857371743       22.0182348474       21.9909285701
 Cl        13.6746948254       21.5725988588       28.1246203126
 Cl        21.8005822762       24.9443635482       21.9373673157
 Cl        16.4831195079       25.1637186211       10.0992326388
 As        12.9941764427       25.1025138734       19.0681114172
 Cl        13.1575539284       24.8464828741       24.6993020303
 As        22.1639489834       12.9818758894       15.8921235729
 As        19.0090733316       18.9692202323       19.0402252784
 Cl        13.7376852123       28.4619268465       16.4033925680
 Cl        13.1085803804       27.7041688102       22.1503187125
 As        22.1593698459       12.9117883577       21.9712145023
 As        25.0632838676       15.9780215467       16.2562553265
 Cl        15.4139645111       24.9176155406       28.4367955414
 Cl        22.2087469313       12.5600295206       27.5366971081
 In        17.5010458874       17.4935471604       11.4238006188
 As        22.0684290723       15.9827190395       19.0462396250
 As        19.2265830265       18.6153536582       24.9549438408
 In        20.7308500414       11.4067648074       20.3926824297
 In        14.3646354404        8.5146681653       11.4169425252
 In        14.6407961022        8.6086974443       17.3409842813
 In        26.3052900493       17.1572799321       14.3820795104
 In        14.2948494665       11.2320093036        8.6807494644
 In        14.6862565542       11.4694369884       14.3738525561
 In        14.5273994634       11.3347067629       20.5264651937
 In        26.6497512885       17.4912697884       20.6570189762
 As        25.4251064751       12.5886886773       25.1687012261
 In        14.5392409605       14.5092587989       11.4852754193
 In        14.5342546340       14.4240020869       17.5139405478
 In        14.5251464071       14.2819430577       23.5324457835
 In        20.4719476918       11.3201249394       26.4072638573
 In        14.4453268614       17.5785434098        8.4469313602
 In        14.4747905662       17.5007032955       14.4645723057
 In        14.5330701224       17.4228944907       20.5627804997
 In        14.7896696432       17.5007005206       26.4029878927
 As        25.4145370849        9.6865710845       22.2322389519
 In        14.4522090414       20.5545099722       11.4235586780
 In        14.5196700746       20.5338387832       17.4967562131
 In        14.4576399787       20.4694588499       23.5905711170
 As        19.0243567242       12.9479356169       12.9322245459
 As        19.1808325157        9.9138434902       15.8951719199
 In        14.4507230204       23.5746666290       14.4534068057
 In        14.5560045144       23.5764010715       20.4823412566
 In        16.2862001591       23.4174370365       26.9726273156
 In        17.5040058902       11.4693960270       11.4064836106
 In        14.4481800058       26.6374270123       17.5865801658
 In        14.7065176202       26.4747691605       23.5090305034
 Cl        21.6244919142       16.6250967753        6.5622386839
 Cl        21.9946618437       13.4469585286        9.9631550293
 In        17.5083854664       17.4842940680       17.4945481753
 As        21.9959030880       15.9748987765       12.9289813892
 Cl        19.8429164936        9.6632371026       27.8403604342
 Cl        24.3944132025       15.3617403827       28.2472595616
 In        24.0131473197       11.5660398233       23.2749589565
 In        17.5155047903       11.3095953353       23.4466271987
 Cl        15.3831107062        6.6817893791       10.4561524978
 Cl        16.1972882658        7.2756247221       15.9560227193
 In        18.0729563989       20.4635301591       26.2341961999
 In        27.1373978220       19.5629452315       11.9146288796
 Cl        15.3848847610       10.3622719864        6.8523491979
 As        16.0678217017        9.8747630375       12.8950655741
 As        16.1176057335        9.8999107316       18.9622996594
 Cl        16.5422012244       13.2655251563       28.3364823900
 In        26.6473066220       20.4648312478       17.5717007474
 In        20.4934451760       14.4307984611       11.4177281318
 As        15.8819012690       12.9238857846        9.9470114372
 As        16.0887051624       12.9532347627       15.9960058652
 As        16.0643835618       12.8643997261       21.9722667591
 In        17.5085559478       20.4835496029       20.5556838459
 Cl        15.9012289023       15.9827530853        7.2205420599
 As        16.0325780291       16.0088281673       12.9939756900
 As        16.0532381576       15.9372290588       19.0222680786
 As        16.0900702737       15.7655965641       25.0674560722
 In        17.6617460113       11.3935502935       17.4155283137
 As        25.1403354425       12.9244027800       19.0838182112
 As        15.9870988870       19.0197002048        9.9392214171
 As        16.0066022446       19.0073964033       15.9778229912
 As        16.0190826255       18.9580526298       22.0913195231
 Cl        16.4973811487       18.8488066066       27.5743583848
 In        20.6485769166       14.4568097706       17.4250906605
 As        15.9630979522       22.0368896763       12.9592096834
 As        16.0514218308       22.0280788582       19.0189223809
 Cl        20.4315717462       21.8448806933       25.4731644993
 Cl        25.5918061351       14.8227758625       13.0680409045
 Cl        16.4112449682        9.8357455442       24.8408790127
 Cl        25.1309363505       10.3530891891       16.0127496927
 Cl        21.9949593004       10.2087126740       12.9979766899
 Cl        18.8099339051       10.2430663427        9.9378931356
 Cl        25.0230328211       16.6103810059        9.7333585236
 Cl         9.4402235697       17.8472696420       10.3232646383
 Cl         9.9332780867       21.6156894299       13.1781401992
 Cl        13.3099656612       25.1181605698       13.1673554372
 Cl        10.1198804250       24.9745982361       16.2799707974
 Cl        10.2376941693        9.7527459361       18.6209571894
 Cl        10.0785127245       13.0591101788       21.8133765694
 Cl        13.2569285690       13.0053412473       24.9710688128
 Cl        10.1556603060       16.1958278052       25.0929223977
 Cl        17.9907982200       24.7956812804       25.5502449416
 Cl        24.6374006883       18.9369281758       25.0192105222
 Cl        24.8287114707       22.1325292934       21.7873229107
     282
 i =        2, E =     -8253.5596524125
 In        26.4813344027       23.5769154032       14.2010754533
 Cl        19.9591285315       25.0276046837        6.9201542857
 In        23.5934290916       14.6790045219       14.5409242541
 As        19.0242340892       24.8828303618       13.0260503344
 Cl        21.8887145871       27.6635218473       13.0116122188
 As        19.1385723021       12.9149181423       18.9401735693
 As        22.2127212273       15.7911343639       25.0036833919
 As        19.0574578600       12.8416924757       24.9485350790
 Cl        28.3106438547       10.5306326878       19.3135748277
 In        17.7354778144       26.5437872964       20.5702108342
 In        17.7405446074        8.4460124546       14.2991774784
 Cl        28.3494862670       13.7585192071       16.1715900216
 Cl        27.8303660008       13.0483127386       21.9595464292
 Cl        17.7204734597       28.2068206081       13.0255208744
 As        15.9302810795       25.0763179909       16.0770586351
 Cl        28.2941477430       17.5300818391       12.9489546352
 Cl        27.8715793650       16.0023416616       19.0546904832
 Cl        28.2271906220       15.6395896306       24.6438076349
 Cl        18.6515485529       28.2529954823       21.7918258489
 Cl        28.1442620535       19.7564001686        9.8801344755
 Cl        27.6265253235       18.8917747057       15.9546193815
 Cl        28.3673169151       18.7115342646       21.5590747145
 As        19.1212243065       25.0114865314       19.0083700879
 Cl        18.0190169430       22.0124989574       28.1609575417
 Cl        27.7820547689       21.7343462511       12.9838640478
 Cl        28.3383923785       21.7292023801       18.4618488912
 In        20.4165211740       17.3373398442        8.3641198820
 In        23.6575504229       14.5079653368       20.5272018568
 Cl        28.1842582128       24.6355983410       15.3367806003
 Cl        19.8736785108       28.0435232574        9.8723966729
 In        17.4154540756       14.3392626185        8.4351173238
 Cl        19.0859072567       27.6643601890       16.1079809226
 As        19.0191516235       22.0352480652       15.9929517248
 In        20.5616043329       17.4977178920       14.4628686767
 In        20.8196508764       17.2498816253       26.5621522069
 In        17.5946206287        8.3505880109       20.4082889421
 As        16.1566064025       25.0175206741       22.0034049071
 Cl         6.8429603187       10.2027031342       14.9808904952
 Cl        24.6561849027       21.8440554246       10.0110605845
 In        20.4961597945       20.4560198099       11.4259209588
 Cl         7.3533392512       13.4362641431       12.9886467818
 Cl         6.7199929207       13.3319326816       18.5890106739
 As        25.2052169349       21.9735370572       15.9126328139
 Cl         6.6887166023       15.3024828015        9.9802898747
 Cl         7.3296174449       16.0748260657       16.2108698873
 Cl         6.8403049150       16.4872633473       21.8514029273
 Cl        21.8514120651       28.1746069442       18.6149385453
 In        23.5102829555       17.3393551375       11.3465665237
 Cl         6.9113879973       17.6572590012       13.0499720067
 Cl         7.3495079096       19.0117379539       19.2295108370
 Cl         7.2687713937       19.8862917580       25.2788957934
 As        25.1581657184       15.9620756257       22.1000888289
 In        23.5761681284       17.5741772288       17.6527956791
 Cl         6.6335951001       21.3428807457       16.4625742407
 Cl         7.4681992496       22.0654019819       22.2277627046
 Cl        16.1219355733       27.7735153634       19.0994057773
 In        23.6052940715       17.4782354923       23.5368760997
 Cl         6.8264552188       24.5394117690       19.5912106710
 As        22.1686086938       25.0593481031       15.9188848096
 In        17.5817821910       14.4609208432       14.4637504457
 As        18.9157982347       15.9213507354        9.9054891716
 As        21.8963694179       18.8699640495        9.9148589252
 In        20.4963259418       20.4786077068       17.5037283199
 As        25.2817100614       25.1090437331       12.4848694737
 In        20.4935161392       20.3634570120       23.5065206359
 In         8.3532760517       11.8255377259       14.4560851308
 Cl        15.3228071897       27.8769567416       25.1991086761
 In        23.4220902633       20.2338898037        8.4298067742
 In         8.1017765768       15.8599352654       11.6637797840
 In         8.5359442363       14.4334415979       17.7378040768
 In        17.5871456526       14.3658612140       20.4756285007
 In        23.5950044381       20.4460511641       14.5225657263
 In         8.7061430604       17.5018259295       14.7284138330
 In         8.6002119652       17.4211202796       20.7276710630
 As        19.0988209093       21.9817782086       21.9938023376
 In        23.6637537404       20.5455517114       20.5746166961
 In         8.4525780878       20.6393249442       17.6648677477
 In         8.6918485567       20.4464650108       23.5972430458
 Cl        24.7388061071       28.0483522325       15.3546967422
 In        20.5765104174       17.4892418811       20.5696662836
 In         8.6699876502       23.7507995755       20.7208781956
 Cl        21.7309751766        6.6688132420       16.2263850477
 In        23.9126142650        8.5902644075       20.4864721855
 Cl        22.2507842337        7.2888528456       22.0234649015
 In        23.5830412855       23.4160129064       11.6667858707
 In        17.5834120571       26.3237500872       14.6050794774
 As        19.0939014389        9.9167545045       21.8515632959
 In        20.4685123286       23.4156509167        8.4385600892
 Cl         9.8049445551        7.0821695747       15.1657423087
 As        22.0558404904       18.9824334381       16.0297766438
 In        20.6306662492       23.4836764043       14.5214235961
 Cl         9.9071596872       10.5327309799       12.8742095145
 In        17.4233400021       23.5082630274       11.4251666869
 As        25.1629454768       19.0203100055       19.1070651953
 In        20.6389867982       23.5034930012       20.5333223294
 Cl        10.3105143908       13.0954727486       10.1634247882
 As         9.9596057591       12.9559798324       16.1150251917
 Cl        13.2938458537        9.7615942204       21.6861327997
 As        22.1169982098       19.0268919575       22.0242506063
 Cl         9.8689601239       15.2519396259        7.0785771022
 As        10.1301493846       15.9895866349       13.1937682742
 As        10.0658526785       15.9628335041       19.1482012316
 As        18.9850511414       21.9928529666        9.9401063763
 Cl        19.2025131785        7.2010379934       18.8801185482
 In        23.3539105574       23.1783216616       17.1832903964
 In        17.5196061907       23.5686716048       17.5052444010
 As        10.0032552753       19.1145038117       16.1795446775
 As        10.1570272908       18.9726712630       22.1259715540
 Cl        10.1744956473       19.8112879298       28.2539129409
 Cl        19.8691814778        6.8592781999       24.8889403516
 Cl        13.1058659587       21.7639694848        9.9842702328
 As         9.9975723538       22.1183696240       19.1142586700
 Cl        10.3097283691       22.0749402472       24.7408234078
 In        17.5890196104       14.2595026412       26.5595294454
 Cl        22.0516889776       24.6018619811       10.0282323252
 In        17.5747388247       23.4136491331       23.5036660367
 As         9.8289262627       25.3682182192       22.3525520662
 As        19.0573256268       15.9930303184       15.9903491770
 In        23.7615816156       26.3215183402       14.1850333071
 Cl        10.6360751544       28.3353676081       19.5195454850
 Cl        18.6888191042        6.6380298025       13.2680298225
 In        20.8071275470        8.4390412598       17.3380161368
 As        22.2396439377        9.9066961827       18.9181811055
 In        20.4799123968        8.3444203389       23.2767890543
 Cl        21.3537112856       18.6619500575       28.2893398638
 In        23.8452265212       14.1919416474       26.3313915261
 In        11.9078137250        7.9331305058       15.2745936494
 As        19.0725439910       15.8777186581       22.0068289025
 In        19.7509786627       27.0568835695       11.9132198284
 In        11.7581748523       11.4224440490       11.4252050396
 In        11.4994185453       11.4031815792       17.5851772491
 In        26.5799170809       11.3075151760       20.6263427971
 In        11.5065094709       14.5973280744        8.5172985036
 In        11.5617071883       14.3389010655       14.6413365854
 In        11.5732721057       14.3594293332       20.6259638229
 Cl        22.0873718941       21.9905397950        7.2436483115
 In        23.6902911052       11.5029501603       17.4280358569
 In        11.5030223188       17.4921853179       11.5857150510
 In        11.5040669604       17.4935610704       17.5827336049
 In        11.5743181820       17.3466749347       23.6665964730
 Cl        19.2055207204       15.7275442587       27.7825624616
 In        17.5112767386       17.3237775101       23.5064740099
 In        11.4864025887       20.5677846438       14.5297420294
 In        11.5156187359       20.5185876741       20.5004113040
 In        12.3141529227       19.7657001669       27.4676827377
 Cl        18.9337553007       19.0055946243        7.1768282860
 In        11.5014425397       23.5784746193       17.5083952348
 In        11.4997540366       23.6603529539       23.1660561979
 Cl        21.9343162173       10.0678691130       24.6548746599
 As        22.0208206297       21.8945343973       12.9978737524
 In        11.4012508571       26.4860109519       20.6544201879
 In        20.6507725806       14.3734664553       23.4969621911
 As        18.9979259382       18.9970562061       12.9633127686
 In        17.4177536199       20.5414135239        8.4298034641
 In        20.7299494964       26.4673660612       17.5856640174
 As        24.9382261991       18.8459718974       12.9634185143
 In        26.6479869506       14.3470884995       17.5947386843
 In        20.6492744757       11.4854473264       14.3736696846
 Cl        13.0313751186        7.1771886910       13.2174511446
 Cl        16.6097818713        6.5373885790       21.4067626971
 In        26.5692771473       14.3466360013       23.6957220020
 Cl        18.5326800476       13.5119562108        6.6207842093
 As        12.6305710130        9.6420062625        9.8555291318
 As        13.0778645543       10.0912581023       15.9377947912
 In        17.4956537132       20.5358045746       14.4500594220
 As        22.0628204903       21.9506690309       19.0079850119
 Cl        12.8204280684       12.9107154179        7.3735035106
 As        13.0634159039       12.9862818331       13.0056804293
 As        13.0482146997       12.9043910574       19.0364461577
 Cl        13.0201715477        6.7411440865       17.2652997179
 As        16.2196745122       21.8206194354       25.0027714354
 As        13.0006916782       16.0516355417       10.0007626462
 As        13.0130237345       15.9860941724       16.0416390543
 As        13.0707420160       15.9082881333       22.0986750477
 Cl        13.3432374809       17.5922709902       28.3985291643
 Cl        13.2201988368       18.5259862486        6.7537283620
 As        12.9795451344       19.0635116903       12.9864941639
 As        13.0569787347       18.9928807247       19.0462651425