     608
 i =        1, E =    -18239.4867939356
 Cl         7.8006271013       13.4019533718       16.2606459385
 Cl         6.9501998295       14.0422419129       21.8760315427
 Cl         7.8675377545       15.9740730553       13.3853703387
 Cl         7.6969564200       16.5508078703       19.3552748145
 Cl         6.9695650972       17.0272572078       24.9033610911
 Cl         7.0645642488       18.6973491506       11.1574691963
 Cl         7.6859165765       19.2772412617       16.5640614753
 Cl         7.6735191744       19.5848920416       22.4216346466
 Cl         6.9845740507       20.0388453895       27.9036212242
 Cl         6.9248333113       21.7885068830       14.0642610630
 Cl         7.6755998996       22.3348432828       19.6492712273
 Cl         7.6841331141       22.6442032916       25.4482198662
 Cl         6.9287827222       24.8021108902       17.1181654172
 Cl         7.6670620328       25.3932599055       22.6637525212
 Cl         7.7989938235       25.6934693732       28.4678764254
 Cl         6.9590870416       27.8632712537       20.1081598975
 Cl         7.7808631891       28.4219195412       25.6575200414
 Cl         7.1022002860       31.0042960403       23.1116588628
 In         9.0312438022       11.7782850945       18.0369472978
 In         9.1248277354       15.0554863663       15.1671301482
 In         8.8843071746       14.9722128204       21.0876277801
 In         9.1203415343       17.8744249773       11.7756757762
 In         9.1333097786       18.0310544185       18.0485417736
 In         8.8836477057       18.0304556153       24.1413520851
 In         8.8967737724       21.0022803964       14.9272119400
 In         9.1250062074       21.0178967923       21.0866637777
 In         8.8876362437       21.0971724884       27.1941736582
 In         8.8857136169       24.0430132879       18.0392675264
 In         9.1247501066       24.1169706423       24.1362841699
 In         9.0320320884       24.2907290997       30.3080306460
 In         8.8844266306       27.0952419971       21.0821450408
 In         9.2746077652       27.2481092715       27.2692952807
 In         8.9636189883       30.2133197711       24.2117559842
 Cl        10.9885977093        7.0644893680       18.9051622758
 As        10.1631022180       10.1632464339       16.3369054804
 Cl         7.0615056901       10.9858319876       18.8991073184
 Cl        10.6607240889       13.4932227704       13.8548913260
 As        10.3645890292       13.4302999792       19.5609582420
 Cl        10.4714188104       13.5559397703       25.3630101342
 As        10.2421762597       16.1748179551       10.2116959164
 As        10.6146606164       16.5190165521       16.5563503031
 As        10.3586526349       16.4850794727       22.5999418203
 Cl        10.4912250985       16.5352006968       28.2909077296
 As        10.3920161877       19.4619448938       13.4300747428
 As        10.5405251700       19.5073050417       19.5635067780
 As        10.3571603851       19.5565838967       25.6214496103
 Cl         7.1595684300       23.1390705868       31.0136133363
 Cl        11.0154318726       18.7949733576        7.0881827787
 As        10.3435705671       22.4973480726       16.4931386128
 As        10.5023736165       22.5507936931       22.5985862982
 As        10.3540994328       22.6368354081       28.6612224857
 Cl        11.0483045987       23.1382336249       34.9122002700
 Cl        10.2967377464       25.1334497186       13.6131774214
 As        10.3614150926       25.5430745525       19.5571788077
 As        10.5258351195       25.6243076798       25.6325743983
 As        10.2465239277       25.9411219858       31.8273796810
 Cl        10.3010415605       28.2758599475       16.7414106880
 As        10.3498168931       28.6046849895       22.6003900586
 As        10.3126604178       28.8961613085       28.8644571228
 Cl        11.0967722389       34.9654936419       23.1878893022
 As        10.1729723766       31.8137296572       25.8371493955
 In        11.7781528813        9.0322464642       18.0366662086
 In        11.8673349193       11.8679721784       15.5954256947
 In        11.9225872468       11.9204996690       21.0933867693
 In        12.1071432963       15.1464220219       11.6361454558
 In        11.9686651394       14.9287755885       18.1850837301
 In        11.8883642510       14.9167676003       24.1150454927
 In        11.8440586617       17.8026816723        8.9977814123
 In        12.0017768524       18.1008708206       14.9149606311
 In        11.9645249851       17.9514004725       21.1528915664
 In        11.8718132917       18.0316206977       27.1687021685
 In        11.9292187128       20.9948483862       11.8860250573
 In        11.9521996358       21.0761162642       17.9598020909
 In        11.9604946020       20.9976901973       24.1358065227
 In        11.8628729749       21.0893298915       30.1596260231
 In        11.8697350685       24.0455066078       14.9317247480
 In        11.9479378509       24.0673849603       21.0007249309
 In        11.9547445337       24.0438624172       27.1631100743
 In        11.7581537352       24.2873376896       33.0423390372
 In        11.8659438110       27.0757448546       17.9654415959
 In        11.9457054197       27.0918904538       23.9959504076
 In        11.8490930133       27.2446575215       30.2139685616
 In        11.8550271824       30.0819524965       21.0095131029
 In        11.6108071855       29.9814702669       26.9474465710
 In        11.7020550073       32.9543730860       24.1346405600
 Cl        13.4015367980        7.7973167797       16.2631238937
 Cl        14.0484137824        6.9504133907       21.8807652766
 Cl        13.4942535145       10.6496010851       13.8551389799
 As        13.4345709234       10.3654611473       19.5584595080
 Cl        13.5878867888       10.4446033236       25.3778058619
 As        13.1706319214       13.1573020752       10.3757052797
 As        13.5168127921       13.5144030700       16.6020024751
 As        13.4324794260       13.4239347529       22.5938936174
 Cl        10.4682416269       31.5209746443       19.8487086334
 Cl        13.5892478781       16.2738258209        7.7797938589
 As        13.4469027750       16.4795974897       13.4475777557
 As        13.4701990991       16.4725706009       19.5956143698
 As        13.3803446308       16.5013759781       25.5796631531
 Cl        17.0302099033       17.0323773951       35.0328924293
 As        13.4354462853       19.4172645431       10.3697582948
 As        13.4781622864       19.5160506576       16.5060987694
 As        13.4564175157       19.5070223919       22.5804042412
 As        13.3812100605       19.5531450059       28.6294271527
 Cl        14.0700235978       20.0577868340       35.0263641748
 Cl        14.0641478825       21.8598134682        6.9607295435
 As        13.3938547770       22.5245224587       13.4041516857
 As        13.4457395544       22.5239638092       19.5108770171
 As        13.4432677585       22.5505956253       25.5934670435
 As        13.3590550462       22.6313988627       31.6650076922
 Cl        13.6136949407       25.1572657069       10.3081656836
 As        13.3770908949       25.5502669762       16.4514612924
 As        13.4561476062       25.5555767193       22.5155617423
 As        13.3708288226       25.6440380662       28.6468769447
 Cl        13.5900880687       25.6886030430       34.2867600709
 Cl        13.5547802914       28.3865943513       13.5491533715
 As        13.3832885490       28.6016252531       19.4749850080
 As        13.4002736969       28.5929168177       25.5689028938
 As        13.1849697075       28.9097337567       31.7511627916
 Cl        13.6364455726       31.6541230339       16.7438123273
 As        13.3551639505       31.6374062402       22.5548598543
 Cl        13.5836208251       31.4032486500       28.4304081012
 Cl        14.0628550575       35.0704055451       20.1175792758
 Cl        13.3618031458       34.2118541617       25.9129429209
 In        15.0535117286        9.1189160066       15.1680669018
 In        14.9739589632        8.8836580613       21.0858365905
 In        15.1508997674       12.0884539143       11.6416961048
 In        14.9313955350       11.9681849499       18.1788221643
 In        14.9117934506       11.8793768755       24.1154250242
 In        14.8264386638       14.7665291722        9.2711737121
 In        15.0006560776       14.9893946093       14.9253237150
 In        14.9616490780       14.9274521009       21.0980145219
 In        15.2015775512       15.2087839891       26.8627519396
 In        14.9632320073       18.0419078683       11.9617392225
 In        14.9725604432       17.9693548528       18.0311178529
 In        14.9640412200       17.9671009660       24.0658760635
 In        14.8459335752       18.0340004590       30.1597141716
 In        14.9153275546       20.9899559431        8.9051624055
 In        14.9246429802       21.0708671965       14.9287668595
 In        14.9659217309       21.0039700642       21.0149908046
 In        14.9218537780       20.9980691788       27.0892193636
 In        14.8364613297       21.0851476292       33.1244178843
 In        14.9104659215       24.0461500760       11.8853547430
 In        14.9092110091       24.0623905267       17.9550961221
 In        14.9535149796       24.0462594777       24.0536269198
 In        14.8492944079       24.0448410916       30.0752665788
 In        14.8816412770       27.0844315557       14.9275938143
 In        14.9072669069       27.0830874600       20.9451311113
 In        14.9100272547       27.0753479216       27.1119122132
 In        14.7647799596       27.2490816692       32.8002604584
 In        14.8882637737       30.1343108662       17.9614603708
 In        14.8359641503       30.0419653890       23.9628798098
 In        15.1135501453       29.9729754716       30.4572980120
 In        14.8439576585       33.1128338420       21.0112329679
 In        15.0062885176       32.8815414285       27.0010280325
 Cl        15.9926336023        7.8528354393       13.4034897753
 Cl        16.5617288452        7.6958279368       19.3611096288
 Cl        17.0636532919        6.9555842026       24.9036797769
 As        16.1821397396       10.2187135336       10.2313691135
 As        16.5219592456       10.6011392217       16.5601380481
 As        16.4886630481       10.3574384733       22.5968733213
 Cl        16.5933163509       10.4578567266       28.3288747638
 Cl        16.3441439735       13.5231513978        7.8029332535
 As        16.4849236132       13.4129473221       13.4621788950
 As        16.5090973140       13.4547586219       19.5712769424
 As        16.4938869932       13.3678680088       25.5913244175
 Cl        16.5793286349       13.6042229473       31.4773302544
 As        16.4290774265       16.3963372705       10.5255709938
 As        16.4776214009       16.4490802848       16.4973599528
 As        16.4906202986       16.4583858443       22.5502907256
 As        16.4641812179       16.5081725538       28.6776444342
 Cl        16.5912935661       19.3478933598        7.6929044468
 As        16.4771331804       19.5057702310       13.4833710485
 As        16.4857285428       19.4760308270       19.5187401690
 As        16.4533379993       19.4879930043       25.5802747704
 As        16.3972664604       19.5336389535       31.6661544588
 As        16.4621898606       22.4923763828       10.3671127632
 As        16.4364086451       22.5262576804       16.4665477741
 As        16.4622546902       22.5228192658       22.5364753427
 As        16.4121816298       22.5413841036       28.5800097851
 Cl        16.5576605401       22.6478721241       34.3236972570
 Cl        17.0953560399       24.8933794545        6.9488846119
 As        16.4108230113       25.5578171850       13.3953232220
 As        16.4341173095       25.5464565319       19.4818762127
 As        16.4467591011       25.5775093277       25.5786829806
 As        16.3749687714       25.6336169483       31.4989545008
 Cl        16.7301658551       28.3379526321       10.3091957955
 As        16.4040161464       28.6119577690       16.4501532232
 As        16.4212073039       28.5652856579       22.5104596559
 As        16.4421945254       28.5984734654       28.6219035451
 Cl        16.4023236819       28.4309135364       34.2487151516
 Cl        16.7469111584       31.6717121923       13.6265028107
 As        16.4243518209       31.6643268813       19.5117792696
 As        16.4547271031       31.4247341866       25.5515464846
 As        16.2218696100       31.8222145019       31.8750294860
 Cl        17.1105836252       35.0665455742       17.1072293552
 Cl        16.5129608598       34.3021477592       22.6987148092
 Cl        16.0786297726       34.2099953687       28.6530767071
 In        17.8838646735        9.1084384507       11.7968761915
 In        18.0440901619        9.1269234880       18.0496969110
 In        18.0338812343        8.8835519939       24.1318044444
 In        17.8687414772       11.7859138289        9.0372526484
 In        18.1182462838       11.9647644458       14.9100732614
 In        17.9617990083       11.9437325925       21.1442366699
 In        18.0279757781       11.8741678752       27.1723730428
 In        18.0461786580       14.9171871085       11.9655354054
 In        18.0319667192       14.9534914332       18.0129614311
 In        17.9733392100       14.9309933240       24.0730000740
 In        17.9676588786       14.9033830337       30.1545907312
 In        17.9436690978       17.9337093287        9.1391858068
 In        18.0103278104       17.9698346028       14.9821894556
 In        18.0297539835       17.9652431462       21.0171166447
 In        17.9648695137       17.9668546606       27.0820420511
 In        17.8828774202       17.9637553572       33.1202662749
 In        17.9392426183       21.0665234780       11.9702318835
 In        17.9636932887       21.0055135676       17.9684844563
 In        17.9675721121       21.0015318195       24.0521277771
 In        17.8756408436       20.9893768991       30.0750308898
 In        17.9544224430       24.0424720877        8.8974811362
 In        17.8935388174       24.0626970134       14.9286303326
 In        17.9619035285       24.0452372132       21.0051946561
 In        17.9613395120       24.0420060743       27.0766807612
 In        17.8783831378       24.1177124714       32.8824478716
 In        17.8916907025       27.0939689092       11.8883651205
 In        17.8902082610       27.0820009569       17.9510718114
 In        17.9595783956       27.0721031242       24.0446661170
 In        18.0249826738       27.0988658426       30.0847669966
 In        17.8903250454       30.1294450087       14.9308941223
 In        17.8816413979       30.0611237198       20.9467622661
 In        18.0409824447       30.0456352144       27.1809674518
 In        17.8708999745       30.2105961469       33.0499243680
 In        17.9515938371       33.1178695098       17.9677332590
 In        17.9555067232       32.8767487028       24.0400092192
 In        17.8812157996       32.9637175928       30.3061105888
 Cl        19.3102644791        7.7026956567       16.5622227146
 Cl        19.6192880378        7.6934595895       22.4257474754
 Cl        20.0588708607        6.9854016166       27.9322047870
 Cl        18.8747930565       10.9235174570        7.1617231909
 As        19.5091449207       10.3743914845       13.4210281158
 As        19.5328314373       10.5280651144       19.5638317157
 As        19.5540400360       10.3605241235       25.6191066110
 Cl        19.7895759200       10.4956937220       31.5419883247
 As        19.4571934948       13.4027422287       10.3859257345
 As        19.5414170402       13.4499264242       16.4835230208
 As        19.5231194795       13.4390502256       22.5697440455
 As        19.5131150192       13.4141157726       28.6424386543
 Cl        20.0698655011       14.0965076036       35.0546608812
 Cl        19.3624422095       16.5797185040        7.6930473514
 As        19.5152199630       16.4318578094       13.4723991583
 As        19.5468285035       16.4530757486       19.5089216934
 As        19.4817296545       16.4456922278       25.5792087529
 As        19.4688267224       16.4611737431       31.6700845865
 As        19.4648845745       19.4496262641       10.5480728153
 As        19.5071248966       19.4785208393       16.4912580358
 As        19.4974460957       19.4898870662       22.5430695988
 As        19.4513424855       19.5015165661       28.5879157116
 Cl        19.5628520679       19.5826582818       34.3232965568
 Cl        19.6008784385       22.3872042936        7.6726165403
 As        19.4722635685       22.5372990136       13.4644309903
 As        19.4644495974       22.5121183795       19.5014315746
 As        19.4761639079       22.5236036694       25.5693348383
 As        19.4103337052       22.5493359727       31.5106338132
 As        19.4814939592       25.5633599070       10.3615154521
 As        19.4284051229       25.5584407119       16.4516022617
 As        19.4738984186       25.5610776430       22.5336493498
 As        19.4991636083       25.5643484607       28.5651820404
 Cl        19.3568901356       25.4123306907       34.3234470763
 Cl        20.1448539971       27.9133935313        6.9344268027
 As        19.4180815461       28.6035269058       13.4120719180
 As        19.4411669968       28.5576481839       19.4885233821
 As        19.4837013978       28.5620978008       25.5911134448
 As        19.4486444421       28.6080759277       31.6519682140
 Cl        23.2612871981       30.9386633493        7.0951991354
 As        19.4770804206       31.6385606366       16.4642251363
 As        19.4606511644       31.4751967843       22.5228678328
 As        19.4519262606       31.6634945778       28.6273068530
 Cl        20.1173434149       35.0522270416       14.0812854148
 Cl        19.6045011786       34.3180256390       19.6295682974
 Cl        19.2982511828       34.3216290006       25.4569535844
 Cl        18.8094862993       34.9890388749       30.8859469751
 In        21.0729258389        8.8977101313       14.9287731490
 In        21.0780115405        9.1260748868       21.0839628482
 In        21.0884243874        8.8900043717       27.1787146139
 In        21.0655799015       11.9201208150       11.8946831712
 In        21.0908470174       11.9386779882       17.9579848327
 In        21.0004047864       11.9504285199       24.1292893926
 In        21.0216244265       11.8802177668       30.1419645809
 In        20.9848110061       14.8996559108        8.8986907561
 In        21.0901091013       14.9171931316       14.9279940506
 In        21.0696503371       14.9281745711       21.0098952875
 In        20.9904297887       14.9244987082       27.0955226122
 In        21.0003935030       14.9091812903       33.1250808000
 In        21.0688417656       17.8919250839       11.9692708075
 In        21.0753164643       17.9605391479       17.9657250522
 In        21.0017832355       17.9656376246       24.0552562105
 In        20.9159406816       17.9306892204       30.0707797724
 In        20.9345770025       20.9924786708        9.1386151640
 In        20.9981693376       21.0009491675       14.9608841545
 In        21.0033413841       21.0031683179       21.0058027244
 In        21.0000084624       21.0037895158       27.0707560760
 In        20.9185821493       21.0085903590       32.8832914695
 In        20.9174088102       24.1114532542       11.9711412212
 In        20.9314197897       24.0436517381       17.9718554995
 In        20.9972501561       24.0410940287       24.0509618873
 In        21.0067484355       24.0617290051       30.0753904174
 In        20.9990693727       27.1061467236        8.8999766548
 In        20.9093835490       27.0861247312       14.9302757061
 In        20.9922437811       27.0715414279       21.0144596615
 In        21.0670787627       27.0929364168       27.1107094353
 In        20.9847143521       27.1000318880       33.1197169162
 In        20.9282296509       30.1340429469       11.9402673717
 In        20.9147243429       30.0593076957       17.9556598699
 In        21.0118105770       30.0601392123       24.1140441526
 In        20.9983557307       30.1143887857       30.1448502170
 In        20.9957553107       33.1150048964       14.9301998088
 In        20.9955183965       32.8749858716       21.0075184433
 In        20.9924737134       33.1199342851       27.1180753097
 Cl        21.8428139339        6.9183336462       14.0727568764
 Cl        22.3946498186        7.6817969973       19.6525169441
 Cl        22.6507964792        7.6957347526       25.4560385760
 Cl        23.0942144684        7.1147323570       31.0174774216
 Cl        18.7148400612        7.0547047235       11.1672656031
 As        22.5516918865       10.3496110678       16.4988181609
 As        22.5825504546       10.5192981697       22.5970333390
 As        22.6059546029       10.3825072936       28.6450588095
 Cl        23.1575620440       11.1367332624       34.9661881959
 Cl        21.8762964195       14.0599434848        6.9635146763
 As        22.5830001668       13.3989683073       13.4098676014
 As        22.5806115932       13.4240192840       19.4952500162
 As        22.5385798494       13.4581681642       25.5828166615
 As        22.5492135564       13.4136880970       31.6624861842
 As        22.4963675805       16.4252179641       10.3725888086
 As        22.5754284487       16.4337948062       16.4502806189
 As        22.5290920277       16.4628130746       22.5354232232
 As        22.4907560799       16.4651041731       28.5837231210
 Cl        22.6516609270       16.5696017308       34.3238401319
 Cl        22.3460422559       19.6275487301        7.6884107753
 As        22.5149710280       19.4547664849       13.4680339676
 As        22.5366597738       19.4882302195       19.4981922272
 As        22.5187990076       19.4813466344       25.5728199108
 As        22.4636741959       19.5157768941       31.4819490685
 As        22.4627655878       22.4986018948       10.5499964319
 As        22.4890300682       22.5191751604       16.4908381643
 As        22.5087690303       22.5135857810       22.5479175210
 As        22.5124704559       22.5448166841       28.5682702552
 Cl        22.3384604830       22.3563992287       34.3313842898
 Cl        22.6758131471       25.4410613312        7.6955642568
 As        22.4786255738       25.5696711442       13.4605307736
 As        22.4817728074       25.5163392242       19.5248110714
 As        22.5182637840       25.5622914051       25.5654139228
 As        22.4677211700       25.5396410762       31.6402489668
 As        22.4990726904       28.6443102985       10.3794757056
 As        22.4541312881       28.5321151299       16.4907278841
 As        22.5056328201       28.5664387796       22.5631739283
 As        22.5276968342       28.6217947979       28.6265232937
 Cl        21.9040632248       27.8978626678       35.0591055804
 As        22.5252710572       31.6334279617       13.4361596471
 As        22.5124462684       31.4790049987       19.4893603399
 As        22.4855814763       31.6509816425       25.5542990527
 Cl        18.9476273027       31.0198866226       34.9187376132
 Cl        23.0987959498       34.9195709210       11.0305563753
 Cl        22.6239344601       34.3157627631       16.6044534455
 Cl        22.3710015426       34.3224955746       22.3960133737
 Cl        21.8763638439       35.0819549268       27.8870530167
 In        24.1161352885        8.8923444628       18.0402162605
 In        24.1283750042        9.1314831974       24.1356946623
 In        24.2100241828        8.9765941741       30.2485895543
 In        24.1114596947       11.8701534277       14.9341264185
 In        24.1296746163       11.9453556165       21.0019578439
 In        24.0324458188       11.9533933118       27.1226329091
 In        24.1274876011       11.7405912545       32.9669252788
 In        24.1086544875       14.9124826090       11.8877378169
 In        24.1163230114       14.9151339775       17.9505408546
 In        24.0568593768       14.9703173493       24.0494168227
 In        23.9562958705       14.8830880874       30.0579880435
 In        23.9669134288       17.9542325794        8.8856023058
 In        24.1051335488       17.9376406498       14.9266402845
 In        24.0499646150       17.9654623141       21.0042245938
 In        24.0411550928       17.9712209601       27.0804583679
 In        23.9779468751       18.0207207509       32.8811435930
 In        24.0357513528       20.9250456281       11.9723739351
 In        24.0404801160       20.9996838892       17.9705974313
 In        24.0398326480       21.0038084128       24.0567264179
 In        24.0585686154       21.0795442283       30.0698158624
 In        23.9752737567       23.9850498198        9.1424815332
 In        23.9745426933       24.0362708303       14.9899978413
 In        24.0341141402       24.0404136890       21.0755150113
 In        24.0548341743       24.1061863399       27.1040543104
 In        23.9814605325       24.0389744570       33.1248887533
 In        23.8908257297       27.1600264278       11.9658496427
 In        23.9757227917       27.0387013835       18.0327681497
 In        24.0555900720       27.0914002076       24.1091681854
 In        24.0419893817       27.0863226123       30.1432842399
 In        24.1235016151       30.2886562899        9.1254894201
 In        23.9081951021       30.0571683018       14.9724393459
 In        24.0460813944       30.0536179979       21.0838038653
 In        24.0441793999       30.1305117413       27.1075522671
 In        24.1211511307       33.0387160306       11.8650941652
 In        24.0391738492       32.8774743950       17.9636219816
 In        24.0338074718       33.1158898497       24.0525056601
 Cl        24.8530645036        6.9316652828       17.1081059992
 Cl        25.4279438890        7.6868547807       22.6752916643
 Cl        25.6473514794        7.7957266610       28.4417848157
 Cl        25.2829236803       13.6808836318       10.3054229469
 As        25.6126086988       10.3612198998       19.5608500289
 As        25.6435007205       10.5369493540       25.6269300791
 As        25.8192243568       10.2019724776       31.8378912814
 Cl        24.8797718961       17.1627181303        6.9390506728
 As        25.6079979610       13.3753291513       16.4561812690
 As        25.5861688081       13.4642791105       22.5385328015
 As        25.5627313836       13.4301979210       28.6248938420
 Cl        25.8644600798       13.4282029649       34.2314198620
 As        25.5945331253       16.4432016071       13.3910328982
 As        25.5687382600       16.4534589939       19.4808495110
 As        25.5696612306       16.4577902992       25.5934717884
 As        25.5069625059       16.5356578420       31.4331471764
 As        25.4821025339       19.4672441729       10.3758778994
 As        25.5630103031       19.4698835496       16.4602129364
 As        25.5539181720       19.4828909770       22.5383645556
 As        25.5515595917       19.5286570151       28.5799302224
 Cl        25.4169416751       19.3323857684       34.3317095749
 Cl        25.3996569712       22.6384545636        7.6936648842
 As        25.4929615116       22.4698976048       13.4931012020
 As        25.5285424575       22.5140179917       19.5288294283
 As        25.5362172774       22.5437127884       25.5822418404
 As        25.5201919911       22.5084819641       31.6682613657
 As        25.4655283774       25.5395796757       10.5660249248
 As        25.5214613237       25.5454283108       16.4856257045
 As        25.5546633428       25.5628994829       22.5737564980
 As        25.5632615772       25.5757700398       28.6309760839
 Cl        24.8326809771       24.8526584991       35.0919259983
 Cl        25.9858896612       28.6967689602        7.9352319110
 As        25.4912615089       28.5837495861       13.4645919419
 As        25.5192733785       28.5374797338       19.5373924982
 As        25.5612674458       28.6254734000       25.5807015243
 Cl        25.2060028837       28.3479023416       31.7037027480
 As        25.7980510491       31.8564708852       10.2859199816
 As        25.5525425802       31.4927593929       16.4290940432
 As        25.5339008819       31.6463531976       22.5105785544
 Cl        25.2321998491       31.7020511507       28.3306027892
 Cl        25.6256547948       34.2705441647       13.6183369554
 Cl        25.3997115715       34.3215278514       19.3731061105
 Cl        24.9031404247       35.0673348093       24.8802434725
 In        27.1718766296        8.9007223687       21.1007032495
 In        27.2655304096        9.2803052725       27.2623153215
 In        27.1513023393       11.8712647188       17.9721886411
 In        27.1601365377       11.9876822025       24.0436064368
 In        26.9336331120       11.6297436299       30.0058651249
 In        27.1103872451       14.9054304516       14.9279840717
 In        27.0968933690       14.9122131154       20.9480600034
 In        27.1021217737       14.9236037686       27.0922707248
 In        26.9502482671       15.0771967608       32.8878660837
 In        27.0873943433       17.9521685224       11.8779421964
 In        27.0911184018       17.9442103042       17.9560121672
 In        27.0696536449       17.9664622397       24.0493139781
 In        27.1630043717       18.1008158608       30.0510486551
 In        27.0042787644       20.9329034762        8.9098791761
 In        27.0806890825       20.9217091716       14.9257580635
 In        27.0672799470       20.9970834673       21.0194746542
 In        27.0817860449       21.0805140148       27.1055312929
 In        27.0819042577       21.0064214442       33.1274135344