149
 i =       27, E =     -4158.6840948911
Cdd        13.4291084837       14.5892125897       12.0607410732
Cdd        13.5186114108       11.9275279406       15.3079532409
Cdd        11.1851724861       15.3652612435       15.4389273325
Cdd        16.7649214555       16.7969867492       11.2278228503
Cdd        16.8774813884       14.0726225223       14.3329337961
Cdd        14.4833123142       17.7386557919       14.5792600587
Cdd        16.7831344486       11.4398499332       17.5929898919
Cdd        14.4914847929       14.9026444902       17.9208795299
Cdd        12.3369400569       18.4788949720       18.0737791320
Cdd        20.2309362189       16.3749579598       13.6284446809
Cdd        17.9367994283       19.9211783261       13.8911020381
Cdd        20.2133928143       13.7477049093       16.7753596387
Cdd        18.0767631404       17.2751277433       17.0486960983
Cdd        15.7411985788       20.7152855948       17.2250485985
Cdd        17.9328780171       14.5529718756       20.2324382397
Cdd        15.7621352577       17.9125671072       20.3467798420
Cdd        12.6437149245       11.5695022529        9.5033042894
Cdd        10.2448423426       15.4381530379        9.8363499394
Cdd        12.1612083207        9.0608371786       12.4086216781
Cdd        10.0540463344       12.0085059601       12.7307698335
Cdd         8.1406679251       16.0867874870       13.1204149900
Cdd        10.2323413555        9.8451001081       16.5424569086
Cdd         8.1309820304       13.2019277382       16.5539290691
Cdd        15.7008900109       13.6027298374        8.5552852847
Cdd        13.2881774407       17.4270863708        8.8121155008
Cdd        15.7728286874       10.7156674927       11.5081109385
Cdd        10.8944877228       18.4742921177       12.0075302446
Cdd        15.5095850021        8.3083144338       14.7059443356
Cdd         8.8975247623       19.0096289311       15.5368012199
Cdd        13.2839495516        9.1856557944       18.5664159172
Cdd        10.8807294556       12.5370907868       19.0639070718
Cdd         8.8927775335       16.1093077223       18.9764422419
Cdd        18.9044664297       15.6002380078        8.0916856646
Cdd        16.4043147612       19.5251084014        8.3405794746
Cdd        19.1575841046       12.8850970217       10.7241164794
Cdd        14.2272285011       20.6388009282       11.2543869993
Cdd        19.1125418917       10.3091710310       13.8190027178
Cdd        12.0315736545       21.4475620107       14.5548564597
Cdd        18.7333908406        8.1430577640       16.8742675355
Cdd        10.2447865185       21.7586727535       17.9128873989
Cdd        16.3647834086        9.0578955414       20.7483363133
Cdd        14.1764316412       12.1034892293       21.3536611247
Cdd        11.9969063416       15.5127048084       21.5937554956
Cdd        10.2473168079       18.8713851186       21.3468048193
Cdd        22.1713044853       15.1940473946       10.3921409718
Cdd        20.0134050178       18.9494162313       10.6828944812
Cdd        17.5214475484       22.4787303044       10.8490458108
Cdd        22.4184231682       12.7215005804       13.2651865757
Cdd        15.5847519405       23.4779673279       13.9401964250
Cdd        22.0855466551       10.3116941404       16.1781244247
Cdd        13.4442660416       23.9313568641       17.0338612140
Cdd        19.9866850943       11.2402856463       19.8292818318
Cdd        13.6721398699       21.6708040414       20.8766370437
Cdd        17.4518417256       12.0051309952       23.2559431207
Cdd        15.5488738090       15.2452961917       23.6907636374
Cdd        13.4108913101       18.3089101425       23.6687640325
Cdd        23.4980401118       18.6257393800       13.2820302200
Cdd        21.3362514836       21.9978120225       13.5126594318
Cdd        23.6970514624       16.0806153475       16.1003525515
Cdd        21.7448995045       19.6952553003       16.4969831336
Cdd        19.2865635453       23.0369003728       16.5416239467
Cdd        23.4260116978       13.7645401446       19.1137829477
Cdd        21.6871394282       17.1208739078       19.5954520781
Cdd        19.5051029580       20.5555437620       19.8284611455
Cdd        17.1860067559       23.5935395236       19.6559779603
Cdd        21.1943193178       14.6447293895       22.3949234707
Cdd        19.1272169735       17.9278756116       22.8474615810
Cdd        16.7797417678       21.3199806754       22.7486061738
SSe        14.8768144246       12.7656681549       13.2363355335
SSe        12.4046453373       16.5496148143       13.4508455726
SSe        12.4089424604       13.6289010397       16.9503036034
SSe        18.3734717520       15.0683534274       12.3535510343
SSe        15.9302422328       18.8488417163       12.6131992833
SSe        18.3534201711       12.2879436319       15.6767711294
SSe        15.9956836765       15.9949936709       15.9664062885
SSe        13.5966049990       19.6961621053       16.1250744749
SSe        15.9146224940       13.1464191876       19.3652540119
SSe        13.5684653514       16.7306068652       19.5707905340
SSe        19.6223818974       18.3823414360       15.1679688227
SSe        19.5878958927       15.5991633135       18.4889848297
SSe        17.2996368833       19.1937441347       18.6649799129
SSe        13.6671521587        9.4951235831       10.4078297555
SSe        11.3361986586       13.3484188344       10.8598460511
SSe         8.7800399547       17.1280571955       10.9366867458
SSe        11.4348241155       10.5885047894       14.4103172875
SSe         9.0480327033       13.9652550411       14.2631260317
SSe         8.7391324890       11.2401703240       17.9753297238
SSe        17.1497590704       11.7903312886        9.5658632594
SSe        14.7849106174       15.6111716886       10.0184692869
SSe        12.3128766147       19.4079748301       10.0495591574
SSe        17.1297639623        8.9847103077       12.8712511766
SSe         9.9480362219       20.2643058882       13.6017641351
SSe        14.8216906908       10.0419001017       16.6030437336
SSe        10.2280169696       17.2704963468       17.0154432377
SSe        12.2749140924       10.7349311034       20.3009268171
SSe         9.9140392237       14.4061059098       20.5514427195
SSe        20.7174110375       14.0285697937        8.7495359626
SSe        18.2862930063       17.9083415875        9.1351994132
SSe        15.7697152467       21.7521623766        9.2432143117
SSe        20.7163414181       11.3086945651       12.0481905411
SSe        13.5215131966       22.5953523628       12.7675644609
SSe        20.6161136659        8.5231831656       15.2813322303
SSe        11.1412196905       23.3961710917       16.2457449592
SSe        18.2618624220        9.5403999287       19.0375106368
SSe        11.4957240133       20.5271262914       19.8018178802
SSe        15.7021120150       10.3043568912       22.7943136221
SSe        13.4843172457       13.9393237546       23.0171319600
SSe        11.0904206071       17.4853639751       23.2472059949
SSe        21.8633425390       17.4649808181       11.6202694753
SSe        19.4994548157       21.1309933069       11.8760178906
SSe        21.7942238039       14.6974583536       14.9062953433
SSe        17.1835567076       21.9309133018       15.3638942736
SSe        21.8121273101       11.9337467457       18.1952959674
SSe        14.8841067749       22.7482834191       18.8006157414
SSe        19.4620684092       12.7776005811       21.7865868971
SSe        17.1778960038       16.3602916712       21.9407640672
SSe        14.8503964351       19.6869306772       22.0711893236
SSe        23.2857666160       20.7914879403       14.4775059621
SSe        23.2444955659       17.9783769781       17.7078348188
SSe        20.9005257608       21.6590911298       17.9193163991
SSe        23.1837089100       15.3104390095       21.0416852122
SSe        20.8676447786       18.8892398679       21.2630393863
SSe        18.5782060862       22.5056625759       21.4014041615
Cll        14.7395731946       23.1185066872       22.6452025403
Cll        17.1997936237       24.4640871718       12.2018221922
Cll        11.4128111813       16.0655332809        7.7777750736
Cll        17.1393180196       13.6810028528       24.9753749326
Cll         9.7489181788        9.8553028948       11.4512486664
Cll        25.0022683061       14.2464328181       17.3229926891
Cll         8.1408390013       18.1403043529       20.3392006993
Cll        18.2579930350       24.9180002121       17.8834210575
Cll        14.8245264000        7.4880487208       19.7331333267
Cll        18.0701987439       19.7170269042       24.2588018933
Cll        14.8859947494       25.2824611816       15.5846336289
Cll        13.6084908846       12.6404918840        7.5097279387
Cll        11.3935600996        7.9016439910       17.4676955225
Cll         6.9645274301       15.0210799777       17.7038203441
Cll        20.3806940596       16.0527592658       24.1780038854
Cll        23.8493427528       11.2331711979       14.7726586028
Cll        16.8699516251        6.7277288188       16.2906594181
Cll        23.8973210776       13.9497761081       11.5704209038
Cll        20.5279599960       24.0443475977       14.5198426164
Cll         6.9701370383       17.5774106621       14.6673346630
Cll        13.4059787362        7.2985992350       13.7705832205
Cll        14.8639700466       18.2638490177        6.9602416776
Cll        17.0399561866       14.8573130578        6.7424118354
Cll        25.0465813194       16.9384585279       14.0967529181
Cll        14.8454896597       17.1155394994       25.2522719738
Cll         8.1314020871       20.6945078950       17.3011467687
