    1847
 i =       96, E =    -56351.6558316603
 In        41.0699805649       21.4755978734       46.6313327282
 In        27.8713913415       40.7407863473       47.2983515586
 In        37.6549013380       21.5767582705       31.1155353034
 In        40.9811859657       40.9099231899       34.5152890535
 In        34.5065828432       21.4915079935       21.4954099606
 Sb        45.5709404405       20.0230033521       29.6265171778
 Sb        45.5185512894       20.1573441468       35.8373989844
 In        34.5140730417       31.2748484617       37.7359832751
 In        47.4620914111       21.8125083655       21.8157173280
 Sb        45.8397754186       19.5276575577       42.6294659619
 Sb        36.0282684580       42.3271539281       16.7594834704
 In        34.4335921002       21.5690063352       27.9636891625
 Sb        35.9764900430       42.3141620348       23.2422312495
 Cl        45.7830997730       23.5994725609       13.8557129155
 Sb        45.8877762089       23.2438830450       20.0328375409
 Sb        45.6044065362       23.2723301653       26.4716225097
 Sb        45.6714593213       23.1337384151       32.8707686453
 In        40.8978331997       40.8288567063       28.1251581308
 In        34.4268131469       21.5799535516       34.3499760534
 Sb        45.5058693828       23.1578659154       39.1597032062
 Sb        45.9514051988       22.6998286104       45.8356345159
 Sb        36.0285647698       42.4932933787       29.6659256042
 Cl        48.4784083615       26.5429355205       26.5353095746
 In        37.5869593541       21.6501307776       37.5835021894
 Cl        45.4958872173       26.8497037834       10.4976153011
 Sb        45.7897142394       26.3920660106       16.7540913824
 Sb        45.6495019645       26.4323278213       23.2938533009
 Sb        45.7530639739       26.5457506498       29.5335890754
 Sb        45.7165067746       26.4929847997       35.8031876519
 Cl        48.4593232734       35.7328706105       29.2497624392
 In        47.1167509489       21.7234137302       28.1342548398
 Sb        45.7254160194       26.2735569688       42.4450479279
 Cl        44.8802864341       25.4349601012       49.0478367064
 Cl        44.7791245522       30.5726386166        6.9626004273
 Sb        45.6417302983       29.6698603826       13.4507423761
 Sb        45.5713342401       29.6144371160       20.0246043072
 In        34.3602799293       31.1946136881       44.2155709844
 Sb        42.4989057959       39.4775224793       13.3982175952
 Sb        45.7217115056       29.4994124967       26.5516958232
 Sb        45.7506438804       29.4525639658       32.8193098336
 Sb        45.8161805198       29.5087282429       39.1540546708
 Cl        45.5730450568       29.1109791927       45.4740187455
 In        31.5313687433       11.8596216812       47.0493059360
 In        37.7529518988       40.9070502408       37.7503865248
 In        34.4271461620       21.5729883065       46.9590904128
 In        37.6687691357       21.6540020468       43.8141744295
 Sb        45.8371946260       33.2982904267       10.1220079825
 Sb        45.4777019091       32.8426655457       16.7924452078
 Sb        45.5265011908       32.7663327572       23.2337888722
 Sb        45.7136773181       32.8617969946       29.4836136228
 In        37.6731342586       21.4835269911       18.2532716703
 Sb        32.7410294690       20.0447508946       10.1980959079
 Sb        45.8750374545       32.7130365482       35.9764844542
 Cl        45.7994327050       32.3155157724       42.1049559580
 Sb        39.2149087252       29.4960272945       13.5487133314
 Cl        48.4003242616       29.8769361095       17.0081697928
 Sb        45.7884562550       36.4954612318       13.3181041939
 Cl        49.5208046422       34.9602017372       34.9251033059
 Cl        44.7277070066       49.1285226596       25.4614994290
 Sb        45.3896347509       35.9970007307       20.0278854033
 Sb        45.6828339427       35.8475474365       26.4899070161
 Sb        45.8923271985       35.9508497047       32.7779020835
 Cl        45.9076681421       35.6364996681       38.8128725994
 Cl        31.8940517821       17.6258084614        6.6469826759
 Zn        34.4304307268       34.3500734018        8.8812265212
 In        27.9838591734       43.9903677247       11.8652118361
 In        44.0507605362       28.0399293991       24.8928718918
 In        37.3433746651       24.9898030010        8.5414121975
 Cl        45.3525860619       38.9885308098       17.0697107501
 Sb        45.5046043071       39.2120261116       23.1784268805
 Sb        45.8011852743       39.1669435685       29.5902096025
 Sb        42.3593821928       39.2409602979       19.9522196024
 Cl        45.8544256951       38.9549557968       35.5601025146
 In        27.9580121451       44.1377309475       18.3385245045
 In        31.5461686488       44.0605628550        8.8797542046
 In        37.6645421587       24.6488162292       15.0825420992
 Sb        45.8062980461       42.7215583171       19.5493356065
 Sb        42.4537413872       39.1962213956       26.4635921158
 Sb        45.7015080221       42.4700874403       26.3605216454
 Cl        45.7221762640       42.1711154867       32.3150911661
 In        28.0341828213       44.1272660944       24.8010255892
 Sb        42.5782883396       39.2511697160       32.8987783915
 Cl        38.9143834146       29.9464187245        7.5474253694
 In        41.1580998734       43.8095881217       18.4912941199
 In        37.6660377283       24.7178571014       21.5695206655
 Sb        45.8786460958       45.8775570395       22.7371007883
 Zn        47.1214724734       21.6456192756       34.4253061638
 In        37.6583574011       24.7960917481       27.9625187436
 Cl        45.4531411321       45.5493305413       29.1472802869
 Sb        39.2124670082       29.5005329367       20.0412015031
 In        46.7100112289       21.3994395063       40.9053688104
 In        37.5931801574       24.8842664848       34.4253226741
 In        34.3530489353       34.2858837466       15.2661451762
 Sb        36.1095597792       42.5825566438       36.1119456362
 In        44.1366312117       34.6788778456       11.8564012380
 In        43.8086443124       34.3441580187       18.4034560436
 Cl        45.8846405396       17.1927866167       20.4236145511
 Sb        42.5028264017       13.4979821033       32.9353820547
 Sb        39.1371968631       32.7814464859       10.5164284185
 Sb        45.8060515376       16.7756662535       26.4173667213
 Sb        42.5778286476       13.4471685673       39.5298894016
 Sb        39.1620843497       32.7108055596       16.7887052537
 In        31.0178900962       37.3438209506       47.4599181537
 Sb        45.4897025966       16.8039906257       32.8652073501
 Cl        35.6472646324       42.3751477021       42.3723634163
 Sb        39.1585374619       32.7590586693       23.2718888756
 In        40.9093289836       37.6719823271       31.3455995428
 Cl        32.4196625877       23.4880716230        7.4821515263
 In        40.8170759396       24.7298098557       11.7738736943
 Sb        39.2385663418       32.8312680792       29.6726840833
 In        34.3545252321       34.3519082625       21.6419585178
 Sb        32.8251643930       23.1869201153       13.4809112966
 Sb        32.8512925211       23.1155727045       19.9516921436
 In        34.3557972270       21.6510728693       40.7349719537
 Sb        39.3281248118       32.9088380348       36.0867241294
 In        34.4297208519       34.4278812526       28.0484702582
 Sb        32.8055452364       23.1357628175       26.3669771764
 Sb        32.7965271528       23.1995153991       32.7949068101
 Sb        32.7681626630       23.2283620021       39.1239872538
 Sb        39.3257227250       32.8679085597       42.6087131230
 In        34.5145900979       34.5087184022       34.5160281030
 Sb        32.7539681872       23.2468655894       45.5886091965
 In        31.2638164108       15.0973616180       11.8565602975
 In        31.1190468231       43.9706839651       15.0873972512
 Sb        32.7771953467       26.5422507814       10.2690169295
 Cl        38.3273353212       31.8263271018       49.4488296744
 In        27.9555295189       43.9839180932       31.1191607423
 Sb        32.8131197817       26.3654784468       16.7821698795
 Sb        32.8247836214       26.3535478509       23.2018845433
 Sb        32.7797913566       26.3688710427       29.6047615978
 Sb        32.7899024223       26.4491400987       36.0125607764
 Sb        32.7757622625       26.4175403056       42.3922970664
 In        37.6632097534       24.8912122240       40.8159799336
 Cl        32.4204970183       25.8726304059       48.8328887992
 Cl        32.7543650777       29.6126856752        7.6562201799
 Sb        32.7411648963       29.5229359806       13.5954975583
 Sb        32.7826728435       29.5661155543       20.0253280916
 Sb        32.8072550907       29.5777929627       26.4227867357
 Sb        32.8055439030       29.6320799122       32.8407998275
 Sb        32.8378439436       29.6365839180       39.2541345862
 Sb        32.7952200299       29.4449593692       45.7529525052
 In        31.3498651142       15.0149756577       18.3298811579
 In        31.1078297402       43.9737120076       21.5654002390
 Sb        32.9048128491       32.8479911567       10.3588282357
 Sb        32.7592784727       32.7205174921       16.8765672486
 In        37.5893673638       18.4135900381       34.3500552571
 Sb        32.7537621875       32.7568574792       23.2249518158
 Sb        32.8181006981       32.8160458201       29.6333193623
 Sb        32.9096195173       32.8548268607       36.0951062980
 Sb        32.8237636749       32.8108944335       42.5519757160
 Cl        32.4606214723       32.4174110078       48.5750535917
 Sb        36.4644623067       42.6557783867       10.1958033871
 In        31.1199652634       44.0464788544       27.9498086242
 Cl        32.9609699763       35.8740405780        7.6791017026
 Sb        32.7162617296       35.9036179123       13.7031566325
 Sb        32.7488316218       35.9618499489       20.0172400092
 Sb        32.7863819192       36.0096414033       26.4555394128
 Cl        35.6657517099       13.6251198800       13.6491589789
 Sb        42.6845821097       10.2104069949       36.4923087044
 Sb        32.8579445892       36.0493587595       32.8883223530
 Sb        32.9274026158       36.0593955485       39.3456290754
 Sb        32.7754714678       35.9096501912       45.8764350063
 Sb        36.0766332494       13.3341629783       19.9607479125
 In        46.8695006348       37.5901442043       18.4147743852
 Sb        42.5069037537       23.0523308428       42.4975276251
 In        31.2693925772       15.0953603494       24.8016423259
 In        31.2664314550       44.1417579363       34.4442832761
 Sb        36.0087358821       13.4403847700       26.3693035317
 In        37.5882779768       46.8708953239       18.4164647887
 Cl        42.2579514319       23.0078442243       48.1590641523
 Sb        32.8626505427       39.1471217574       10.5432697578
 Sb        35.9837259582       13.6455174813       32.7587208312
 In        37.5823670820       24.7227159550       47.0324344437
 Cl        41.4029319665       27.4874069044        6.5767464534
 Sb        42.4775305658       26.2668552435       13.4696789275
 Sb        36.0210917338       13.6391162655       39.2129644298
 In        47.0461990214       44.1381584191       24.5403387012
 Sb        42.4959497240       26.3046398971       19.9735111884
 Sb        42.4350158312       26.4035981737       26.4396068546
 Cl        29.0898472774       10.4761537397       10.4769233097
 Sb        42.4162090601       26.4415442979       32.7658269914
 Sb        42.4568142520       26.4284619861       39.2133590256
 In        37.5097045370        9.2062478066       37.5881984106
 In        47.4486320181       24.9738668195       18.4964392138
 In        31.2767495989       44.1457595388       40.9024164006
 In        34.5153714506       34.4390055381       40.9920312546
 In        34.1902546391       34.1800164000       47.5321018627
 In        44.2239278908       18.3332372042       21.5673562548
 Cl        45.3189218398       17.0876768017       38.9414467747
 Cl        42.3829677696       17.0093245080       16.9859100296
 Cl        39.1957870993       36.3332083804        7.9418884386
 In        40.9148022268       31.1936817359       44.1476373811
 Sb        36.4624915892       45.8044770630       13.3382342969
 Sb        42.5648782271       16.6735902430       23.0955430922
 Sb        39.1781757186       35.9591709161       13.6425198665
 In        28.1213361371       44.0597265362       37.6754142358
 Sb        35.9841968247       45.3797917617       20.0127679997
 In        34.3603619966       37.5052610816       12.1827493534
 Sb        42.4394100260       16.7584729997       29.5477443840
 Sb        39.1705697604       35.9647659168       20.0332729142
 Cl        35.6825928682        7.4910085340       26.8083982914
 Sb        32.7392061791       39.1940278827       16.8291413577
 In        40.9064417708       24.6428487755       18.3261812781
 Sb        42.3730544696       16.7741036161       36.0382604097
 Sb        39.2344697083       35.9856686126       26.4934484308
 Sb        29.6610714940       35.9397421429       10.4346556021
 Sb        32.7531074565       39.1336631821       23.2453583994
 Sb        32.8099359031       39.2390358600       29.6693131312
 In        28.0341643225       44.0593294032       44.0646615299
 In        40.9040953947       43.9778420165       24.8806037498
 Sb        39.2946968835       36.0564188067       32.9146560567
 Sb        29.5054821614       36.0062892815       16.8468027352
 Sb        32.8975615303       39.3079142287       36.0806992318
 Sb        32.9172593485       39.2543266719       42.6273766958
 Cl        31.7273594914       38.1664363909       49.4853740288
 In        34.3502827147       37.5756644689       18.4166654434
 Sb        39.3789933418       36.0942723767       39.3506239756
 Sb        35.9424512597       45.5701457538       26.3409609164
 Cl        33.0359984954       42.1000894356        7.8398722243
 Sb        32.9246624270       42.4935026063       13.5236021429
 Sb        32.7546682517       42.3512311874       20.0461975907
 Sb        32.7384360432       42.3596569562       26.4415727905
 In        34.4213137184       37.5863716347       24.8803155439
 In        37.5858404967       27.9627766589       11.8567060459
 In        41.0607647953       37.6706055959       37.7440623182
 Sb        32.8533833042       42.5260352660       32.8523110501
 Sb        32.9228142476       42.5734190020       39.3118963673
 Cl        32.3022712528       42.1671659671       45.8052257947
 In        31.2004090512       15.1793972849       31.1256920144
 In        31.4422396038       37.4258082196        8.9614057289
 In        34.4428111839       37.6637824048       31.2828595159
 In        46.9572083016       37.5166268434       24.7824524606
 Sb        33.2901365308       45.8256242420       10.1098387203
 Sb        32.7992762501       45.4954070444       16.8035914993
 Sb        32.7381562187       45.5553541916       23.2282213835
 Sb        32.7280810904       45.6352718577       29.5597892272
 Sb        32.7854689234       45.8673089848       35.9735946590
 Cl        32.3203284171       45.7870410314       42.1622637022
 In        34.5200693738       37.7414073011       37.7500414670
 Cl        42.3933691256       39.0473835625       39.0344052055
 Sb        39.2081651516       29.5841236640       26.4285973711
 In        37.5015233295       43.7380187690       14.8363708246
 Cl        32.9946106473       48.1490957572       13.7961026343
 Cl        32.9113910028       48.3179227988       20.0222777652
 Cl        32.7676688674       48.4603614131       26.2798306194
 Sb        36.4705929863       13.3010152733       45.8357218259
 In        34.5076105130       37.5837269367       44.2368928007
 Cl        48.2120045956       22.9546091164       42.1337647788
 Cl        32.4167320572       48.5976609334       32.4423449348
 Cl        31.7208830867       49.5509159363       38.1664950029
 Cl        30.5303418716       11.2353296699       49.0451242889
 Sb        29.5576705723       35.9915404152       23.2043658549
 In        37.5915536587       18.4099590282       40.7387327662
 Sb        29.6422491268       36.0154990670       29.6467615009
 In        40.8292094086       44.1416748651       31.2697923560
 In        37.6626087113       43.8152267716       21.6510293846
 Sb        29.7197084484       35.9932050445       36.0788836428
 In        34.3521851684       31.1168476335       12.0147059634
 In        28.1331759374       47.2879534033       15.1770010053
 Sb        29.6836201440       36.0111915453       42.5438065714
 In        43.9706063495       34.4311373054       24.8847712769
 In        37.6598838546       27.8755656040       18.4015373210
 In        34.4292539761       31.1112532308       18.4172297522
 In        34.4194263194       31.1884160381       24.8146087762
 Cl        35.5152748477       17.1186775192       10.1366310837
 Sb        35.9841522700       45.8827934715       32.7665906466
 Sb        42.5420724665       26.3191310149       45.7259307154
 Zn        28.0483445647       47.2731630003       21.6581836680
 In        34.4331966668       31.2636455341       31.2738161398
 Sb        36.1007702742       16.6355874717       16.6791389402
 Cl        48.1258167408       33.0131082703       13.8262469855
 In        31.1163464066       15.1812819369       37.5883124508
 In        44.1572615601       34.4220272386       31.2570550414
 Cl        48.3378719086       32.8201728135       26.3112779309
 Sb        36.0702432889       16.6606298287       23.1337261140
 In        37.6583837255       27.9532225362       24.8014961394
 In        31.5271329881       47.0403911648       11.8565834657
 Sb        42.4108862492       29.6622488163       10.2453444731
 Cl        35.5439562010       45.9253962331       38.8450050520
 In        31.1198189711       15.0874948463       43.9772774984
 Sb        42.4086273356       29.4889281436       16.7395230920
 Sb        42.3830062032       29.5401686255       23.2704464862
 In        47.1937646052       24.9745951959       25.0457040369
 In        47.0286477527       24.8854313422       31.2805320528
 In        44.0571725222       28.0299519653       31.1955064758
 In        37.6690547662       44.2251205131       34.5018393519
 In        46.9643756856       24.7118319083       37.4271483015
 In        40.8983536798       24.7318252502       24.7992261171
 Sb        42.5915115254       16.5089289392       42.5267716435
 Cl        38.8305879560       35.5360125804       45.9180603007
 Sb        39.2719240936       26.4721000865       42.4398419664
 In        37.6659387104       37.5954646498       28.1278596430
 Zn        27.9648171558       47.2844448616       27.9669645612
 In        31.1281504247       40.7466243009       24.8044473645
 In        37.7479371741       37.7455873637       34.5251926280
 Sb        29.6398848432       23.1314456395       23.1774532803
 In        46.6315827698       34.5972613785       15.0074993883
 In        37.6573063662       28.0436311257       31.2045046153
 Cl        38.1779850971        6.5222431849       24.3280705348
 Cl         6.9514030680       11.1825574947       25.4313174296
 In        28.1133116835       21.5621996546       15.1132001412
 Cl        42.3450613171       20.3308206518       13.6900040885
 Cl        38.9068262153       38.9262903741       10.7006517856
 Cl        38.9654456472        7.5676358841       30.0250375033
 Cl         7.8367058555       13.7717651663       22.9782947801
 Cl         6.5597081194       14.4686803745       28.5571722427
 In        28.0473394277       21.5029572120       21.5786465771
 Sb        39.2010247555       39.1994070078       16.7965039978
 Cl        39.2320218509        7.9479614828       36.4629885451
 Cl         7.8658091397       16.7860578396       19.6224999700
 Cl         7.5446959460       16.9874299668       26.0933052362
 Cl         6.4393551601       17.8742048234       31.7008830842
 In        28.0346692430       21.5007559857       28.0326022100
 Sb        39.2107759213       39.1840716873       23.2475763497
 Cl        45.7674181520       13.8700501524       23.6117721456
 Cl         7.8864727348       19.6951996928       16.7795372446
 Cl         7.6045603887       20.0110455334       23.0726539090
 Cl         7.4401861444       20.3372917183       29.2121375429
 Cl         6.4044682015       21.1067815980       34.9097801465
 In        27.9569711070       21.4976611639       34.4304228815
 In        27.8772533467       47.1181987413       34.2706090205
 Cl         7.8480541306       22.9830740647       13.8311556471
 Cl         7.6077975640       23.0593174545       20.0375236010
 Cl         7.5407239518       23.2164331029       26.3449619758
 Cl         7.4150677861       23.5635625143       32.4432441876
 Cl         6.5156740268       24.3100020561       38.1556146119
 In        27.9569315200       21.5622041348       40.8304988002
 In        46.9635082374       34.4291385439       21.6281324823
 Cl         6.8668561325       25.4497291434       11.2754025574
 Cl         7.5313802776       26.0861465887       17.0314108890
 Cl         7.5571917763       26.2934180730       23.2711329401
 Cl         7.5196684080       26.5389753299       29.4719911452
 Cl         7.4680937653       26.7877440952       35.6736245444
 Cl         6.5731223173       27.4341410751       41.4722835346
 In        28.1202106414       21.6520299329       47.1132927298
 Sb        29.5836556839       23.1693761622       29.6170409148
 Cl         6.6148051912       28.5945308597       14.5621372393
 Cl         7.4462716940       29.2576186371       20.3297253310
 Cl         7.5097290977       29.4855759934       26.5509018828
 Cl         7.6068992527       29.7076114457       32.7880938797
 Cl         7.5721861849       29.9098777233       38.9796255777
 Cl         6.9532868042       30.4972090817       44.8252544472
 Sb        36.0379803903       16.7527298920       29.5138536048
 Sb        29.5446641680       23.1755941149       35.9923026097
 Cl         6.4659241456       31.7160718161       17.8867813190
 Cl         7.4183055672       32.4351040656       23.6031971753
 Cl         7.5763795273       32.7607966567       29.7297071941
 Cl         7.6779801738       32.9120275001       35.9719469836
 Cl         7.8097388385       32.9594494261       42.2062796803
 Sb        35.9663244649       16.8315588115       35.9661195169
 Sb        29.5611623183       23.2478509197       42.3832964599
 Cl         6.4448789722       34.8611752743       21.1470951602
 Cl         7.4559438192       35.6957482792       26.7654416548
 Cl         7.6775001772       35.9577870427       32.9533541631
 Cl         7.8433464281       36.2789697172       39.1963888566
 Sb        36.0421249246       16.7553168656       42.3580769281
 Sb        35.8427473593       10.2622685030       29.5617827788
 Cl        29.6113624312       23.1255230420       48.4972392757
 Cl         6.4613108811       38.1638751939       24.3030536532
 Cl         7.5633752273       38.9593117724       29.9410733040
 Cl         7.9050096508       39.1655511701       36.3282711659
 Cl        36.2595193378       16.8187565626       48.1427568554
 In        40.7352577746        8.6286581902       28.2902669286
 Cl        29.4371076212       26.5079427956        7.5785429600
 Cl         6.6211506987       41.4164236908       27.4485184580
 Cl         7.8678910284       42.1632572088       33.0089925911
 Cl        34.8608572704       21.0069188612        6.4754910566
 In        40.9857975174        9.3656937651       34.6000014644
 Sb        42.4371756810       29.6322657225       29.6252790193
 Sb        29.5970553558       26.3337857375       13.5750409287
 Cl         6.9380543563       44.7326864581       30.5428700064
 Sb        36.0447833599       19.9117339586       13.4006153832
 In        37.5167467862       47.0378278129       24.6414259074
 Sb        42.5453680012       29.6661893502       36.0301676260
 Sb        29.6170181357       26.3455460226       20.0194629663
 Sb        36.0797905790       19.8795969327       19.8899612080
 In        37.6672039778       28.1169110935       37.6661894553
 Sb        42.5541594193       29.6284465000       42.4808765980
 Cl        41.5052092863       28.5846152178       49.3687052588
 Sb        36.0381893698       19.9571373350       26.3509945737
 Cl        36.3575971127       48.1330082919       16.7983123108
 Cl        42.1385467213       32.9953525138        7.8384835436
 Sb        42.5067914728       32.8820043742       13.4918047315
 In        37.6667169353       28.0246452984       44.1329642892
 In        34.6063442858       40.9094309586        9.3627718109
 Sb        42.5644983804       42.5643223016       16.4789193535
 Cl        48.3021822544       32.9168747940       20.0443426326
 In        37.5173486637       12.1929365751       41.0905856243
 Cl        45.8967672517       20.4264174343       17.2105191479
 Sb        42.5642405450       19.8808057419       19.9372924826
 Sb        39.2501635086       39.2509550461       29.7203933715
 Cl        38.7789794910       10.1115378542       20.4392679057
 In        34.3420247204       40.7506935129       15.1753225704
 In        34.3461290469       40.7295999899       21.6491680540
 Sb        42.4846953005       19.9502382599       26.2914638218
 Sb        39.3837180325       39.3026221222       36.1396892056
 Sb        39.1855591651       10.1602231021       26.5383816183
 Sb        29.5084821957       10.2676394164       23.1901767278
 Cl        35.9263766027       48.3456792782       23.0565666666
 Sb        42.3551545338       20.0328563072       32.7679999230
 Cl        38.9535133061       39.0215345441       42.4246507354
 Sb        39.1743221792       10.4860534378       32.8617795767
 In         8.9517544340       11.8535038563       24.4726125955
 Sb        32.7726172162       13.6431316093       35.9592715213
 In        44.3030806590       34.4266078992       37.6650209299
 Cl        35.6877492272       48.5387201007       29.2461861976
 In        27.8692283542       47.2946565770       40.8191100181
 Cl        38.8788183179       10.7083225050       39.0240619022
 In         9.3636659824       15.0027472622       21.4700282933
 In         8.6274397593       15.1833361001       27.8658971446
 In        27.9562178692       24.8038101918       11.9411647323
 In        31.2640415433       11.8502713508       21.6496352904
 Cl        48.4196041797       29.7356510825       23.2388663225
 Cl        34.8463684573       49.5502254910       34.8853076059
 In         9.1266692228       18.4149622132       18.4085140205
 In         8.9641186560       18.4925731703       24.7998481169
 In         8.4638546925       18.6562282677       30.9437117483
 In        28.0429383115       24.7297298250       18.4119227947
 In        34.4313428769       40.8312790986       28.1080954911
 In        40.8136781330       24.8084252327       31.1995187696
 In        44.0622811609       27.8836115085       18.3213429481
 In         9.3610767625       21.4001862500       15.0093848872
 In         8.9597833630       21.5677428952       21.6415438697
 Zn         8.7178524528       21.7269111471       27.9419679595
 In         8.4626093006       21.8168906557       34.1806675519
 In        28.0355550921       24.7231588343       24.8029080632
 In        34.5148295479       40.9762489233       34.5166098634
 In        31.1997123940       11.8779159490       27.9692539216
 In         8.8802348615       24.4704670161       11.8611974075
 In         8.8883692943       24.6396053515       18.4170632009
 In         8.8841185635       24.7993683539       24.9599145796
 In         8.8796973558       24.9687270350       31.0317220428
 In         8.5337698737       25.0566767830       37.3445862198
 In        27.9606506246       24.7276141907       31.2652972647
 In        34.5157370958       40.9088804707       40.9867103605
 In        31.2776706482       12.0198806481       34.2793707300
 Cl        28.4987372083       14.5646072598        6.6294092193
 In         8.7022782359       27.8655533885       15.1786883197
 In         8.8794208936       27.8715388025       21.7358363333
 Zn         8.7137008382       27.9641315369       28.0409280506
 Zn         8.7193726192       28.0611701842       34.2695638436
 In         8.6311764847       28.1330237239       40.7398414495
 In        27.9586984419       24.7320640244       37.6536542210
 Sb        29.7261739437       10.4052868338       35.9596294777
 In        40.8193995641       24.8873854507       37.5862148248
 Sb        29.6886082241       13.4745512144       13.5436727872
 In         8.5454879476       31.0270443050       18.5728808157
 In         8.8000711150       31.0224208264       25.0389381905
 In         8.9544529530       31.1048135931       31.1998301869
 In         9.0396771381       31.2000890167       37.5069444764
 In         8.9487470596       31.4543840360       44.1416902427
 Sb        36.0096264429       19.9905709814       32.7146436966
 Cl        29.2484751002       35.6801520096       48.5037609983
 Sb        29.6829313134       13.4565342923       19.9881425554
 In         8.5378890543       34.1892113407       21.8165529401
 In         8.8828146371       34.2829366327       28.1365964521
 In         9.0342856067       34.3621725484       34.4343306147
 In         9.2892120594       34.5202941644       40.9938500036
 Sb        35.9683677051       20.0328889942       39.1750558412
 In        31.1119015122       37.5874713659       15.2511263589