     935
 i =      327, E =    -21731.1122338083
 Cl         9.3817933971        8.5993544415       11.3537870824
 Cl         9.0782736391       11.9316018056       14.4120442241
  H         8.2555361040       13.3188504778       12.2950967814
  H        10.2848583192       13.9240829444       17.6947940332
  H         9.2154090257       18.7245730250       16.3705527396
  H        10.1886957679       19.9546314721       23.4002312932
 Cl         8.9524699095       22.1530410946       20.4351100442
 Cl         8.9282469542       22.9705874376       24.6665458181
 Cl         8.9075005479       27.3597654726       25.7583314416
 Cl         9.0362746229       28.0370891520       30.2738708045
  H         9.2204939192       31.3374003955       29.0376545348
  H         9.4418372478       31.4279118440       34.2582307998
 Cl         8.8568769367       32.7165227749       30.9351272332
 Cl         8.7235168860       33.2386168816       35.4183601341
 Ga        10.3130961489       10.0874264009       10.1614483569
 Ga        10.4837401112       12.7398794724       12.9714607213
 Ga        10.5426494421       15.4898295745       15.7900261584
 Ga        10.5607596636       18.4370980880       18.3613744242
 Ga        10.6290840257       21.0840820078       21.2446905142
 Ga        10.6290024368       23.9109723847       23.7579661887
 Ga        10.6181268993       26.4745518250       26.7113891595
 Ga        10.5488726478       29.2872083665       29.3600614203
 Ga        10.4771362444       31.9500781569       32.1181627680
 Ga        10.2480158669       34.6698305264       34.8428457090
 Cl        11.4992467143        9.3625674341        8.5633369689
  P        11.7575784155       11.4154412416       11.5880640184
 Cl        11.8415827360       11.7683923577       16.9875882219
 Cl        11.7391510530       14.1883275423        9.2293836681
  P        11.7742286082       14.2425461797       14.3207405888
 Cl        11.8439407771       14.4660619616       19.6568683848
 Cl        11.8501467693       16.9589344760       11.9560353133
  P        11.8283828645       16.9538335828       17.1128690578
 Cl        11.9691593461       17.2951847023       22.4108054249
 Cl        11.9110219402       19.6301629573       14.6552105699
  P        11.8641118445       19.7889663786       19.7614475719
  P        11.9577913822       22.4946845434       22.5152730255
 Cl        11.9284586238       22.6782682252       27.8418735493
 Cl        11.9846035276       25.0323518913       20.0026352925
  P        11.8851759577       25.1681348631       25.2671077634
 Cl        11.8229263693       25.4644990455       30.5485560047
 Cl        11.9507418276       27.7332413258       22.7944846456
  P        11.8592879862       27.9763737031       27.9559576556
 Cl        11.8837226121       28.1865275754       33.4500892939
 Cl        12.1999438623       30.4819263210       25.2106895541
  P        11.8135483199       30.5935072701       30.7668085091
  P        11.6994562630       33.4146825218       33.3928033476
 Cl        12.1768919479       36.0319907800       30.6742775289
 Cl        11.4668692701       35.1585770341       36.5580840115
 Ga        13.0605959014       10.0912629688       12.9847918698
 Ga        13.0518730507       12.8909363214       10.3153273499
 Ga        13.1410516623       12.8975669369       15.6930433619
 Ga        13.1407494782       15.6311992540       13.0452145978
 Ga        13.2087601248       15.6400617795       18.4526411587
 Ga        13.2124445589       18.3029696364       15.7844687556
 Ga        13.2774121090       18.4363043375       21.0955526108
 Ga        13.2877495871       21.0972064760       18.4422916021
 Ga        13.2894920361       21.1674170181       23.8957524552
 Ga        13.3528250421       23.8235149110       21.1793994149
 Ga        13.2764983604       23.8249965690       26.5716379654
 Ga        13.2945828041       26.4904451645       23.9766881140
 Ga        13.2034216582       26.6312756431       29.3534020243
 Ga        13.2914398212       29.2793544981       26.6338600391
 Ga        13.1989657928       29.2951395583       32.1026430399
 Ga        13.2094721183       31.9504089538       29.4476619348
 Ga        13.1216393973       32.1079357825       34.6805120642
 Ga        13.1275743808       34.7500693534       32.1007651646
 Cl        14.5570279697        8.8963277950       11.9945201147
 Cl        14.9601138242        8.7291632244       16.7322463209
  P        14.4401660256       11.5688487176       14.3397738500
  P        14.4350599522       14.2860776272       11.6939075274
  P        14.5012524521       14.2612287356       17.1145168675
 Cl        14.6460637971       14.4841334874       22.3203480644
 Cl        14.9602298322       16.6647291597        8.8272211759
  P        14.5245926567       17.0091024859       14.4042981348
  P        14.5696683718       17.0342056917       19.7805474966
  H        15.5701984581       16.2647685737       24.8906213974
  P        14.5868031537       19.7053694997       17.1096397266
  P        14.5941555620       19.7719076777       22.5284769672
 Cl        14.6626347972       20.0854927900       27.8922934945
 Cl        14.7676341757       22.2512594075       14.5118975840
  P        14.6339921790       22.4479627883       19.8228868801
  P        14.6364317261       22.4965175597       25.2435666347
  H        15.6818198499       21.7885353419       30.6218067060
  H        14.2768827847       24.0310717219       16.7930764724
  P        14.6425641478       25.1854442946       22.5733764755
  P        14.5261520174       25.1771035628       28.0287554329
 Cl        14.6204640207       25.3661832900       33.4059838066
  P        14.6218408682       27.8459244524       25.3380843458
  P        14.5262291877       27.9064506615       30.7546135766
  H        14.6519651458       26.9975853258       35.1910681575
  H        13.7937407860       30.0076140013       23.3406388703
  P        14.5573447155       30.6112128758       28.0498779609
  P        14.5149217995       30.6478004279       33.4702649331
 Cl        14.7088285305       33.3261641300       25.5985015857
  P        14.5069079411       33.3114750028       30.8008525321
  H        13.3904295908       34.0428030787       36.0695709073
  H        13.7041257785       35.4862147557       28.6685595777
 Ga        15.8592515000       10.3103132335       15.6339696049
 Ga        15.7754245542       12.9726612852       13.0577510003
 Ga        15.9427880903       12.9731491106       18.4316715600
 Ga        15.8578054426       15.5594298756       10.4035421101
 Ga        15.8716272383       15.6365557738       15.7799198037
 Ga        15.9539898381       15.7074645908       21.1009740597
 Ga        15.9443976434       18.3514521309       13.1199102471
 Ga        15.9413597135       18.3678991288       18.4464919868
 Ga        16.0120049503       18.4279228315       23.8199383215
 Ga        16.0128743357       21.0169751011       15.7903110824
 Ga        16.0070628292       21.0954603419       21.1799514726
 Ga        16.0076081565       21.1599261272       26.5684391808
 Ga        16.0264091384       23.7495732203       18.5077689588
 Ga        16.0071624087       23.8307186515       23.9028654490
 Ga        15.9421933125       23.8194920439       29.2855539392
 Ga        16.0127097558       26.5521577257       21.2500484515
 Ga        15.9447516288       26.4871811965       26.6998629147
 Ga        15.8676047511       26.4878469602       32.0328062017
 Ga        16.0110004142       29.1504977386       23.9870177939
 Ga        15.8727172579       29.2237499716       29.3718310372
 Ga        15.7821264841       29.1405977501       34.6943549327
 Ga        15.9477641632       31.9544885735       26.7178756397
 Ga        15.8669077332       31.9570095490       32.1013781947
 Ga        15.8645971208       34.6009227665       29.4403779648
  H        17.7497934763        9.9739088951       14.0494435626
 Cl        17.1201502234        9.2439387081       19.8205005742
 Cl        17.1022473599       11.7741244301       11.8439518667
  P        17.2173211335       11.5703477366       17.0981923315
 Cl        17.2609735658       11.8172022400       22.3864351738
  H        16.5068285184       13.3838160090        9.5242056220
  P        17.1895850037       14.3109787068       14.4228345791
  P        17.2996101772       14.3431973681       19.7806532920
 Cl        17.2666363793       14.6396053134       25.1582774172
  P        17.2047842725       17.0146257691       11.7082815362
  P        17.2758005873       17.0180968951       17.1066118886
  P        17.3168437089       17.0358729089       22.4992471411
 Cl        17.1312747262       19.8294399095        9.4917300468
  P        17.3497671118       19.7089522390       14.4256640237
  P        17.3093074873       19.7211752249       19.8311019798
  P        17.2962603173       19.7227735514       25.2666774980
 Cl        17.3179285202       20.0551247570       30.5833081591
 Cl        17.6035215207       22.5115716957       11.9518981068
  P        17.3439406090       22.4051590269       17.1571966214
  P        17.3311282759       22.4639734217       22.5480592770
  P        17.3190567719       22.4989476518       27.9454015373
 Cl        17.3978707146       25.0348531936       14.7339525826
  P        17.2982968216       25.1976888518       19.8235658314
  P        17.3115178282       25.1833150636       25.3039518002
  P        17.2122621732       25.1169920994       30.7139619853
 Cl        17.5261963114       25.7082826339       36.3420312227
 Cl        17.6282874635       27.8817707238       17.2985884225
  P        17.3612443505       27.8865114849       22.5970852534
  P        17.2586982602       27.8745818793       28.0358702900
  P        17.1863082595       27.8482946064       33.3754275221
 Cl        17.5466896509       30.4732433390       19.9948102185
  P        17.2660250583       30.6205372289       25.2852522521
  P        17.2088971030       30.5844463032       30.7411314307
 Cl        16.8649314957       29.9376694968       36.3653159670
 Cl        17.6442546182       33.3390834133       22.7555275312
  P        17.2850130258       33.3259834135       28.0655486742
 Cl        14.3309135012       35.8462965902       33.4991331822
 Cl        16.9159662691       36.1126249573       30.4818020348
 Ga        18.5193498611       10.2394868704       18.5261862930
 Ga        18.5226396614       12.9725376204       15.7828195599
 Ga        18.6067961546       12.9792478865       21.1751803242
 Ga        18.5237485195       15.7020971819       13.1163671212
 Ga        18.6646920876       15.6988061694       18.4440473520
 Ga        18.6691637660       15.7113441692       23.9033102873
 Ga        18.5177030261       18.4444922239       10.3964462819
 Ga        18.6751304335       18.3555670793       15.7860998745
 Ga        18.6722376035       18.3718770030       21.1754595567
 Ga        18.6753315364       18.3674697975       26.6283327187
 Ga        18.7452295265       21.0921053344       13.1272466338
 Ga        18.6783998720       21.0890186360       18.5202057499
 Ga        18.6691730548       21.0892856313       23.9050478661
 Ga        18.6717944605       21.1562815500       29.2972425553
 Ga        18.7445868724       23.7565171778       15.8631030073
 Ga        18.6722616963       23.8243951079       21.1777522182
 Ga        18.6743666592       23.8270381803       26.6291248614
 Ga        18.5922923836       23.7581418723       32.0362569458
 Ga        18.7550239391       26.4926674219       18.5161203442
 Ga        18.6755406865       26.5445392975       23.9702894129
 Ga        18.5936938823       26.4850051841       29.3719443530
 Ga        18.5960849728       26.5639096702       34.6894934336
 Ga        18.7559844094       29.2175143059       21.2582144887
 Ga        18.6001559532       29.2247334403       26.6414614904
 Ga        18.5337798204       29.2071044760       32.0364551155
 Ga        18.7495053379       31.9469737484       23.9897238075
 Ga        18.5077488429       31.8030613320       29.2813444842
 Ga        18.7539245294       34.6797090811       26.7912097124
 Cl        20.3384165033        8.7294285283       22.1597475502
 Cl        19.6884788054       11.6154855514       14.5688695560
  P        19.9238007588       11.6109500934       19.8444967783
  P        19.9701080504       14.3069961678       17.1019941460
  P        19.9633955825       14.2784957635       22.6079080134
 Cl        20.0890287494       14.4428595770       27.7368670058
 Cl        19.6874506552       17.4334651345        8.9100416361
  P        20.0125076184       16.9945574384       14.4314805937
  P        20.0111737189       17.0164916910       19.8567055212
  P        20.0276953513       17.0627880363       25.2492451235
  H        20.9646578680       16.1902281440       30.3306718492
  P        19.9893350214       19.7213157849       11.7470044721
  P        20.0051570319       19.7418138913       17.1610176334
  P        20.0169855895       19.7461154332       22.5483547331
  P        19.9890539723       19.7282989859       28.0025959002
 Cl        20.0640560508       19.9543853561       33.3700689630
  P        20.0722843337       22.4324904013       14.5024040353
  P        20.0437070972       22.4589403199       19.8648801930
  P        19.9957581225       22.4471979614       25.2796386298
  P        19.9909494172       22.4664624484       30.7003824419
  H        20.8129395066       21.5724997386       35.8362698700
  H        19.8659310392       25.6556535105       12.8883081587
  P        20.0946483375       25.1549070156       17.1628339822
  P        19.9934623209       25.1740326965       22.5796300084
  P        19.9778010044       25.1646607865       28.0187227471
  P        19.9009496692       25.0995018543       33.4415296783
  P        20.0784891076       27.8320461937       19.9140647546
  P        20.0075950388       27.8847774833       25.3242998705
  P        19.9097349315       27.8209973060       30.7472884073
  H        19.8836261718       31.0136490117       18.3360470687
  P        20.0780749978       30.5721432781       22.6255756324
  P        19.9809776812       30.5582177578       28.0108042633
 Cl        19.6930656114       30.3853727027       33.4283645245
  P        20.0428405746       33.2882890156       25.3825185453
  H        19.3806738432       35.0204691461       22.6187192103
 Cl        19.9977164441       35.7289900484       28.1709501116
 Ga        21.3323299143       10.3182801982       21.1669028754
 Ga        21.2574839812       12.9746592331       18.5205084694
 Ga        21.4112394646       12.9766882132       23.9126029786
 Ga        21.3307706205       15.7145606072       15.8613280693
 Ga        21.3291544394       15.6375776352       21.2525325681
 Ga        21.4086228364       15.7002101257       26.5636278036
 Ga        21.3310000864       18.4282881460       13.1270344383
 Ga        21.3406198307       18.4222407920       18.5296907961
 Ga        21.3838806513       18.4203667988       23.9125016586
 Ga        21.3972251016       18.3571536781       29.2837896244
 Ga        21.4104032913       21.0209527566       10.4656714953
 Ga        21.4105666695       21.0935033714       15.8566652352
 Ga        21.4017836435       21.1018885325       21.2383206444
 Ga        21.3334431059       21.0872460967       26.6440116656
 Ga        21.3310794994       21.0808450284       32.0258409819
 Ga        21.4151335009       23.7564735863       13.1370071366
 Ga        21.4169533660       23.8197923293       18.5216107612
 Ga        21.3368458403       23.8068900514       23.9095149150
 Ga        21.3382395356       23.8238743483       29.3712898146
 Ga        21.2480666439       23.6715637668       34.6887577024
 Ga        21.4769041515       26.4796094193       15.7866857381
 Ga        21.4130410990       26.4883721855       21.2534381517
 Ga        21.3332566583       26.4884641598       26.6497351413
 Ga        21.2579629659       26.4703927994       32.1001292101
 Ga        21.4752879748       29.1466676118       18.5917323524
 Ga        21.4030602814       29.2142979100       23.9734801461
 Ga        21.2609521114       29.1441754225       29.3710774846
 Ga        21.4775633112       31.8723286391       21.2538194686
 Ga        21.3992654440       31.9412568232       26.7011793695
 Ga        21.4046806146       34.5364957648       23.9775492171
  H        23.3919856887        9.9528840105       19.8233211057
 Cl        22.6299458977        9.2150763810       25.2438975635
 Cl        22.5116619943       11.7433550109       17.2633378169
  P        22.6942248621       11.5757736863       22.5917594971
 Cl        22.7827041080       11.7768042025       27.8641660762
  H        23.2222361962       14.1706978279       15.6236571403
  P        22.6465916136       14.3132740784       19.8895413053
  P        22.7621834485       14.3098884901       25.2852869610
 Cl        22.6932488240       14.6557565556       30.5993978277
 Cl        22.5520678701       17.2118758662       11.8125044939
  P        22.6856811817       17.0769985205       17.2082273347
  P        22.7028685777       17.0233899642       22.5874948828
  P        22.7502208424       17.0166950301       27.9668489226
 Cl        22.7926386752       17.1477980804       33.3673346354
  H        22.5832496438       18.8907597070       10.0055159102
  P        22.7217426258       19.7706816472       14.4748646932
  P        22.7399791387       19.7524213866       19.8725474769
  P        22.7130822848       19.7508845403       25.3037363998
  P        22.6510053688       19.6548193475       30.7309540245
 Cl        22.9172953735       20.3166568673       36.3412518168
  P        22.7256322358       22.5021251954       11.7125652046
  P        22.7754782235       22.4655387101       17.1777857171
  P        22.7353518077       22.4642836955       22.5942435991
  P        22.6620033947       22.4234321687       28.0271389275
  P        22.6767937333       22.4165593416       33.3744374695
 Cl        23.0130081065       25.0740561030        9.0173342251
  P        22.8042459294       25.1510695067       14.4100209272
  P        22.7746720399       25.1736356231       19.8839255917
  P        22.6711840055       25.1327656782       25.2924293389
  P        22.6906513064       25.1718663807       30.7566878744
 Cl        22.1942698072       24.6312814566       36.3621801300
 Cl        23.0519147251       27.7885871997       11.8083781729
  P        22.7741639296       27.9018732411       17.1266807316
  P        22.7489506552       27.8544509464       22.6093602226
  P        22.6596391801       27.8325874627       28.0149851650
 Cl        22.3731129634       27.6529437265       33.5329126020
 Cl        23.1188727034       30.4946168009       14.4445759637
  P        22.8110659961       30.5464176561       19.8724506975
  P        22.7401293308       30.5517841405       25.3480195450
 Cl        22.4208645996       30.3928896436       30.6861011864
 Cl        23.0047115573       33.1921702840       17.2994722069
  P        22.7895050450       33.2692259024       22.5883824175
 Cl        22.7063782524       33.1024046845       27.9219772365
 Cl        22.9192462984       35.9110095989       20.1239033069
 Cl        22.4434481500       36.0759741733       24.9955954476
 Ga        24.0537637734       10.2415333972       23.9989808554
 Ga        23.9878043383       12.9726745211       21.2526996165
 Ga        24.1292186387       12.9673438885       26.7038291407
 Ga        23.9890628281       15.7025924584       18.5883210281
 Ga        24.0662261677       15.6953601687       23.9687471693
 Ga        24.1282889249       15.6950132455       29.3695838845
 Ga        24.0499606961       18.4290057416       15.8551464826
 Ga        24.0613766365       18.3753931817       21.2519806872
 Ga        24.0690117333       18.3673066551       26.6387756892
 Ga        24.0553156582       18.2876379311       32.0430079223
 Ga        24.0516858055       21.1695870006       13.1289664674
 Ga        24.1280264900       21.0998807626       18.5191508280
 Ga        24.0709113623       21.0933284449       23.9685489184
 Ga        23.9923247966       21.0180508965       29.3712957533
 Ga        24.0652519850       21.0953839606       34.6875095659
 Ga        24.1373367777       23.8204423242       10.3207324228
 Ga        24.1339820728       23.8153947034       15.7936028079
 Ga        24.1200441475       23.8154440656       21.2464905303
 Ga        23.9967074684       23.7459566760       26.6379713243
 Ga        24.0467881359       23.7501304642       32.0352411231
 Ga        24.2184260282       26.4786167775       13.0628460180
 Ga        24.1281705329       26.5532601965       18.5187475621
 Ga        24.0656471949       26.4817179333       23.9698264923
 Ga        23.9916697701       26.4191823394       29.2932755699
 Ga        24.2178512783       29.2083206572       15.7917649407
 Ga        24.1354716193       29.2009546399       21.2484908233
 Ga        24.0632159794       29.1411580853       26.6532702872
 Ga        24.2135701741       31.8799289332       18.5257201845
 Ga        23.9912078142       31.7757499263       23.8299222965
 Ga        24.2200956728       34.6123397198       21.2558338509
 Cl        25.2574409119        8.8482133949       22.8939496479
 Cl        25.9805991364        8.6381397858       27.6020742639
 Cl        25.1641648149       11.6327571459       20.0319558609
  P        25.4407446106       11.6039754722       25.3259778984
  P        25.3956946754       14.2932506373       22.6156350257
  P        25.4516125846       14.2943841218       28.0748172097
 Cl        25.5510024611       14.5046714159       33.4007596142
 Cl        25.1202835246       17.0427542973       14.5858083216
  P        25.4131485468       17.0412377349       19.8976407338
  P        25.4375744342       17.0085295694       25.3292270382
  P        25.4820209528       17.0014266621       30.7488353489
  P        25.4779312600       19.7443493651       17.1656888940
  P        25.4206808701       19.7282364905       22.6157987954
  P        25.3980892660       19.7011217141       28.0365295999
  P        25.3547392132       19.6106317743       33.4672266255
 Cl        25.2853602124       22.4433342778        9.1230809501
  P        25.4872711147       22.4629558286       14.4550371580
  P        25.4535971311       22.4549568680       19.8943669544
  P        25.4277491569       22.4180038031       25.3358540390
  P        25.3528750868       22.3280408943       30.7496822933
  P        25.5384055454       25.1187638429       11.7067883682
  P        25.4563960903       25.1779529685       17.1742149946
  P        25.4474579871       25.1396552595       22.6252465029
  P        25.3429200175       25.0566159628       27.9852364421
 Cl        25.1643663312       24.9345445400       33.4659194496
  P        25.5376999806       27.8263612713       14.4686485666
  P        25.5009412352       27.8685140078       19.8867343094
  P        25.4093723642       27.8031961875       25.3114239715
  H        25.5686256598       28.2819155586       29.5501509480
  H        24.7212393904       30.3273643441       12.7694819588
  P        25.5502799109       30.5462385122       17.1641330021
  P        25.4991527543       30.5396908919       22.5865683435
 Cl        25.2710203985       30.2595156939       28.0451278365
  P        25.5237967199       33.2508540665       19.8640252365
  H        24.7140304389       34.9929014690       17.2985778589
 Cl        25.4275789745       35.7726981012       22.5793978668
 Ga        26.8739716167       10.3131115017       26.6377838383
 Ga        26.7818339128       12.9707931240       23.9933470312
 Ga        26.7882979739       12.9089614423       29.4398022995
 Ga        26.6381978820       15.7888411348       21.4058690120
 Ga        26.7857301827       15.6305718083       26.7139340962
 Ga        26.8639124696       15.6252675061       32.1092044705
 Ga        26.7955484216       18.4217935990       18.5853782659
 Ga        26.7798135209       18.3632414167       23.9830503195
 Ga        26.7915570561       18.3608325720       29.3832901224
 Ga        26.7133657198       18.2058546454       34.7612449920
 Ga        26.7960550331       21.1690890528       15.8678451050
 Ga        26.7838208097       21.0897933747       21.2582277847
 Ga        26.7743803120       21.0346312722       26.7102105243
 Ga        26.7158567094       20.9463759422       32.1069532104
 Ga        26.8655484366       23.8261229228       13.1232659976
 Ga        26.7921098498       23.8254894019       18.5341365862
 Ga        26.7940727860       23.7625096575       23.9795880575
 Ga        26.6478577090       23.6829428199       29.3707590902
 Ga        26.8742065230       26.5551646387       10.4672451907
 Ga        26.8669455943       26.4896339295       15.8458409281
 Ga        26.8031943262       26.4788119036       21.2524723462
 Ga        26.7185203180       26.4119632787       26.6484322646
 Ga        26.8717330310       29.2094550289       13.1346094105
 Ga        26.8806681754       29.2160321706       18.5219814722
 Ga        26.7874924306       29.1471570743       23.9778530725
 Ga        26.9535460739       31.8825830301       15.8520669657
 Ga        26.8677740252       31.8830503294       21.1847939386
 Ga        26.8650168031       34.5338652068       18.4465470982
  H        27.2538541959        9.8554452998       30.6660450440
 Cl        27.9997155675       11.7176166513       22.7227976911
  P        28.1588860234       11.5726637855       28.1153450532
 Cl        28.2132143656       11.5856747349       33.2897266037
  P        28.1364941876       14.2930137147       25.3752686805
  P        28.1582248588       14.2334250340       30.7906123333
 Cl        28.3996415019       14.9631363331       36.4910211264
 Cl        27.9890586976       17.1600092810       17.3264366056
  P        28.1541108726       16.9910220294       22.6757378183
  P        28.1267355549       16.9886261576       28.0572487150
  P        28.1988213998       16.9765870664       33.4962819756
  H        28.9384409696       20.0620599716       15.4511057893
  P        28.1381768055       19.7412379333       19.9524412402
  P        28.1203876741       19.7089104578       25.3379457214
  P        28.1501405832       19.6946480960       30.7768256879
 Cl        27.4610379061       19.3159883864       36.4451291524
 Cl        28.0976565679       22.5157798013       11.9337144524
  P        28.1525158228       22.4917188050       17.2225835519
  P        28.1338287066       22.4306721119       22.6099212410
  P        28.1016859027       22.4011146371       28.0717333730
 Cl        27.8121690121       22.2000868003       33.5006727232
  H        28.4522617438       24.7095816604        9.9206246175
  P        28.2038734757       25.1747225005       14.4853598614
  P        28.1685209544       25.1372112315       19.8909561672
  P        28.1491282784       25.1222169991       25.3410590816
  P        28.2054062759       27.9475839444       11.7495524327
  P        28.2103458790       27.8594077544       17.1649477927
  P        28.1453104749       27.8262600479       22.6104683262
 Cl        27.8573061117       27.6354201363       28.0072125443
 Cl        28.3605715502       30.5918912197        9.1053666521
  P        28.2407442940       30.6044861224       14.3917072561
  P        28.2668856538       30.5559152391       19.8742721773
 Cl        28.5957947548       33.3871072862       11.8557100819
  P        28.3035800094       33.2601316040       17.1555006782
 Cl        27.8249533404       36.1418523127       19.4427597146
 Cl        28.5718553795       36.0748556409       14.8321702518
 Ga        29.4421596532       10.2475772257       29.5836809764
 Ga        29.4613457501       12.9629941896       26.7881153991
 Ga        29.5259583187       12.8863349351       32.1857411633
 Ga        29.5189629172       15.6255436332       24.0623332125
 Ga        29.4531598900       15.6230287606       29.4514694157
 Ga        29.5990944882       15.6274345880       34.8329157273
 Ga        29.4584444759       18.3661170709       21.3208875983
 Ga        29.4519018644       18.3511671892       26.7119696628
 Ga        29.5136857302       18.2995517637       32.1149592947
 Ga        29.4576820240       21.0984289779       18.5897138131
 Ga        29.4565466410       21.0863466178       23.9873064422
 Ga        29.4471355503       21.0123525752       29.3738762576
 Ga        29.5237919804       23.8268390759       15.8613906132
 Ga        29.5169728725       23.7475044789       21.2397116896
 Ga        29.4532547740       23.7458665600       26.7154511762
 Ga        29.5176662580       26.5599370871       13.1203055183
 Ga        29.5294386764       26.4900787032       18.5254454167
 Ga        29.4545554709       26.4121440883       23.9069665616
 Ga        29.5281334784       29.2891913672       10.3238169278
 Ga        29.5406742659       29.2082780435       15.7719767649
 Ga        29.5288938031       29.1437276011       21.2487195414
 Ga        29.6799682366       31.9555186075       13.0604735218
 Ga        29.6015027648       31.8670504903       18.4484167614
 Ga        29.7562969457       34.6093149590       15.8662290912
 Cl        30.2426089969        8.5769020366       28.5096434286
 Cl        30.6545634208       11.6353395684       25.5545770050
  P        30.8973939287       11.5114156950       30.8601986674
 Cl        30.7833734834       11.5885169902       36.1541915103
 Cl        30.8034418172       14.4232286341       22.8502436542
  P        30.8433331168       14.2698164461       28.1350463664
  P        30.8425952948       14.1509674705       33.5932456420
 Cl        30.6644421059       17.1192029175       20.0538384833