    1847
 i =       51, E =    -72273.1316260306
 Ga        36.5455726183       19.9233118981       41.2910094209
 Ga        25.5393146464       36.3815922811       41.6248269909
 Ga        33.6158696367       20.0800770730       28.2235646391
 Ga        36.3811807806       36.3157583345       30.9230395712
 Ga        30.9258066796       20.0688549271       20.0776316799
 Ga        30.9380866422       28.2331494153       33.6224652095
 Ga        41.6244707172       20.0748423998       20.0757521466
 Ga        30.9292401810       20.0757911698       25.5272846328
 Ga        36.3118785505       36.3110468751       25.5300180429
 Ga        30.9319250918       20.0841322533       30.9260263433
 Ga        33.6182292804       20.0849311591       33.6055099742
 Ga        41.4588926341       20.1560404154       25.5493801087
 Ga        30.9274395892       28.1581019450       38.9965631779
 Ga        28.3903730499       11.8338787594       41.6073118058
 Ga        33.6949552173       36.3112514747       33.6858994013
 Ga        30.9960033194       20.0704442536       41.4398627937
 Ga        33.6972553459       20.0706582182       38.8435820618
 Ga        33.6206347149       20.0661585223       17.3782619700
 Ga        25.6109270106       38.9952722198       11.9320517676
 Ga        38.9075262148       25.5477100163       22.8465425412
 Ga        33.6132446916       22.8417806553        9.3028120217
 Ga        25.5523435870       38.9952037262       17.3770129379
 Ga        28.3980740857       39.0889176838        9.3804131620
 Ga        33.6270641443       22.7708045063       14.6844367037
 Ga        25.5350008118       38.9150349592       22.7630903770
 Ga        36.6294856991       38.8257508572       17.4746751111
 Ga        33.6168232750       22.7679161466       20.0781909668
 Ga        33.6129348587       22.7718406069       25.4833501196
 Ga        41.3647572410       19.9223345183       36.4676460798
 Ga        33.6137725700       22.8340123544       30.9268405531
 Ga        30.9259978322       30.9161479331       14.7646930819
 Ga        39.0964107979       31.0749394979       11.9189633619
 Ga        38.8501491220       30.9296419503       17.3700860328
 Ga        28.2291484750       33.5459191737       41.7118945627
 Ga        36.3284788153       33.6233104755       28.2333629454
 Ga        36.3132629542       22.8399520450       11.9953841602
 Ga        30.9243015790       30.8560744366       20.0878062689
 Ga        30.9324121754       20.0810608205       36.2265826431
 Ga        30.9264195146       30.9107907863       25.5365918232
 Ga        30.9385174221       30.9294193737       30.9346909718
 Ga        28.1675463836       14.6855217299       11.9955161230
 Ga        28.2368532376       38.9235585697       14.6049773340
 Ga        25.4670801187       38.8576745601       28.1561008289
 Ga        33.6865714280       22.7833376712       36.2415711077
 Ga        28.2330374788       14.6168822035       17.3785510608
 Ga        28.2215223732       38.8687189005       20.0076996483
 Ga        33.6188686948       17.3858916011       30.9210919229
 Ga        28.1663847981       38.8571772127       25.4561262737
 Ga        41.5388577622       33.6091393671       17.4598744788
 Ga        28.2386247997       14.6938272996       22.7764663048
 Ga        28.2332151489       38.9291645422       30.9182162969
 Ga        33.5450074461       41.5369258534       17.3914605411
 Ga        33.6928539656       22.6940488155       41.4413913976
 Ga        41.5425292159       39.1705934717       22.6113884417
 Ga        33.6197890954        9.5371572313       33.6181587133
 Ga        41.6221403991       22.8355003478       17.3781963426
 Ga        28.2313693417       39.0001532695       36.3766340201
 Ga        30.9969498685       30.9236562645       36.3188901083
 Ga        30.9324144833       30.8507448659       41.6291332289
 Ga        39.0029584943       17.3742159889       20.0812279950
 Ga        36.3914160015       28.1542063946       39.0066313319
 Ga        25.5436741823       38.9296116450       33.6251036502
 Ga        30.9961614418       33.6156713365       12.0818178385
 Ga        36.3127790323       22.7700661925       17.3748191229
 Ga        25.4685002939       39.0096916458       39.0063013420
 Ga        36.3237009800       38.9350770537       22.7620725786
 Ga        30.9227246408       33.5959647442       17.3886474126
 Ga        30.9240195969       33.5437531505       22.7780310843
 Ga        33.6202127828       25.5402029260       12.0052642142
 Ga        36.3915497529       33.6157923172       33.6231943525
 Ga        28.2369780496       14.7636836363       28.2188741398
 Ga        28.3226227340       33.5404548427        9.4665957942
 Ga        30.9339885585       33.6148145988       28.2389314685
 Ga        41.4441901441       33.6237160456       22.7548005337
 Ga        31.0015031790       33.6195525197       33.6826354118
 Ga        33.5257595403       38.7656869071       14.3575676151
 Ga        30.9333048735       33.6003115395       39.0144376226
 Ga        33.6687617695       17.3732535702       36.2421028352
 Ga        36.3139889775       39.0034100935       28.1657935403
 Ga        33.6325592844       38.8474063091       20.0671183002
 Ga        30.9305545933       28.2223162198       12.0864472799
 Ga        25.5436280486       41.6153786139       14.6001136380
 Ga        38.9059514097       30.9355464276       22.7852464857
 Ga        33.6176691282       25.4650900520       17.3835939238
 Ga        30.9288004616       28.1603487561       17.3982917251
 Ga        30.9305048067       28.1625358306       22.8379688654
 Ga        30.9254193809       28.2235277401       28.2319505493
 Ga        28.2297900457       14.6920358921       33.6143401942
 Ga        39.0118336418       30.9159948302       28.2239304441
 Ga        33.6077524281       25.4719472807       22.7828553644
 Ga        28.3886669332       41.5356233002       11.7671222025
 Ga        28.2372254139       14.6187651890       38.9324550428
 Ga        41.5306382137       22.8532444727       22.8539706953
 Ga        41.4423188138       22.8437612037       28.2380165290
 Ga        38.9256021505       25.5193908594       28.2270727025
 Ga        33.6327583720       39.0014543942       30.9248629543
 Ga        41.5341063793       22.6885703304       33.6097436467
 Ga        36.2946233375       22.7809317190       22.7899431975
 Ga        33.6196327871       33.6130834013       25.5372259522
 Ga        28.2274177721       36.2223191271       22.7672255224
 Ga        33.6882220976       33.6235559784       30.9382262945
 Ga        41.3597741305       31.0790476505       14.5363216930
 Ga        33.6106649777       25.5311519508       28.2321030430
 Ga        25.5430889285       20.0703933889       14.7657278922
 Ga        25.5454303038       20.0742288236       20.1421555627
 Ga        25.5411885461       20.0731281625       25.5351248512
 Ga        25.5318886024       20.0731320361       30.9268503575
 Ga        25.4646335445       41.4530976130       30.8431731594
 Ga        25.5337567869       20.0745342811       36.2395503522
 Ga        41.4494596407       30.9337670427       20.0794801788
 Ga        25.6150050879       20.1539986214       41.4532103185
 Ga        36.3887775805        9.3792609748       25.5439399271
 Ga        36.4801156196        9.7154390006       31.0807816628
 Ga        33.6135251950       41.4572534168       22.6951695899
 Ga        33.6355317212       25.5365962246       33.6184376384
 Ga        33.6905461628       25.4551090549       38.9921429306
 Ga        31.0837168746       36.3985893429        9.6324525688
 Ga        33.5271978342       12.2236012357       36.6347201141
 Ga        30.9220040487       36.3042177419       14.6793833428
 Ga        30.9208627244       36.2217841762       20.0759660586
 Ga         9.4610912949       11.8447331636       22.6120780607
 Ga        39.0859247488       30.8611232393       33.6168969082
 Ga        25.5412992696       41.6211392105       36.3887295426
 Ga         9.7128844929       14.5295734493       19.9203583072
 Ga         9.3797463243       14.6721635186       25.4582121883
 Ga        25.5365123464       22.7732921357       12.1509450183
 Ga        28.2276723057       11.9873203357       20.1348934535
 Ga         9.4686799868       17.4578516632       17.3910497836
 Ga         9.5619352967       17.3856695538       22.6952937661
 Ga         9.2946943059       17.4467045223       28.1569668663
 Ga        25.5415932352       22.7687903198       17.4655578502
 Ga        30.9271800662       36.2345371707       25.4834538548
 Ga        36.2419160034       22.8342260033       28.2310150059
 Ga        38.9294993212       25.5322175304       17.3807494170
 Ga         9.7114831329       19.9972465702       14.5309406429
 Ga         9.6117786214       20.0793348122       20.0788766131
 Ga         9.3786431431       20.0839062898       30.9248512604
 Ga        25.5411796109       22.7684552786       22.8433157790
 Ga        30.9951230970       36.3067320231       30.9887864222
 Ga        28.2343183808       12.0790223191       25.5250166438
 Ga         9.4656322218       22.6815361372       11.8377253623
 Ga         9.5547454544       22.7603960741       17.3931782700
 Ga         9.5519896229       22.7702683214       22.8448659514
 Ga         9.5469257438       22.8533107784       28.1575905817
 Ga         9.3027114857       22.8469921681       33.6153298111
 Ga        25.5401683348       22.7680402041       28.2328698055
 Ga        30.9398823522       36.3097104109       36.3819647879
 Ga        28.3033414052       12.0819613477       30.8571441786
 Ga         9.3863042270       25.4733336807       14.6159909668
 Ga         9.5519561125       25.4559935986       20.1546118854
 Ga         9.3878955926       25.5416840706       36.3823657930
 Ga        25.5395658913       22.7714322602       33.6046886621
 Ga        36.3146545265       22.7852331665       33.6131791328
 Ga         9.3795169952       28.2262961974       17.3759011949
 Ga         9.5354174021       28.1458227553       22.8581866783
 Ga         9.5530271987       28.1644827793       28.2357282143
 Ga         9.6237362192       28.3031540028       33.6269361727
 Ga         9.4706179155       28.3954958580       39.1752501414
 Ga         9.3775273958       30.9282776276       20.0831909033
 Ga         9.5523323149       30.8466728667       25.5535730594
 Ga         9.6166920702       30.9262458469       30.9372411090
 Ga         9.7207605237       31.0817047799       36.5408610248
 Ga        28.2353587151       33.6089242231       14.6944202367
 Ga        39.1664898402       28.3935398896        9.4592840931
 Ga         9.3800659919       33.6225104195       22.8380679844
 Ga         9.5473788516       33.6129030659       28.3065824063
 Ga         9.4719945431       33.6006891807       33.6105465341
 Ga        36.3972684901       22.7607163850       38.9244845375
 Ga         9.3855411885       36.3899354398       25.5431419567
 Ga         9.7122535900       36.4687498016       31.0778209025
 Ga        28.1603794512       17.3871412601        9.3064806106
 Ga        28.2433921609       12.0056042969       36.3228776653
 Ga        38.9917714035       17.3798046010       25.5338459693
 Ga        33.6226756588       11.9990934068       25.5458395367
 Ga         9.4648362086       39.1614686662       28.3947214430
 Ga        28.3046307088       41.4398474164       17.3184675267
 Ga        36.3163723410       11.9940843499       22.8446160353
 Ga        39.0153799460       11.9988637701       25.6057478738
 Ga        36.3873501381       12.0749018655       28.2434112616
 Ga        28.2379076741       17.3646667766       14.6903202994
 Ga        36.6429866798       12.2382476085       33.5201121788
 Ga        33.6219057251       28.3046440769        9.5368404483
 Ga        38.9203710885       17.3876284359       30.9358172247
 Ga        38.8438775132       17.4716219587       36.6190212540
 Ga        38.9842659348       28.2421998918       14.6762322245
 Ga        41.6158739405       22.6066569889       39.1600534850
 Ga        28.2367246547       17.3794322417       20.0774689919
 Ga        25.6092581875       22.8414635955       38.8532034279
 Ga        28.2334144496       30.8500555600       38.9991479959
 Ga        33.6230563819       41.6207004996       28.1636808513
 Ga        33.6295394806       36.3130855265       28.2368246777
 Ga        28.2390227040       17.3874070514       25.4778864518
 Ga        28.1663774243       41.4474538738       22.7626400791
 Ga        41.7113721389       33.6127428854       28.1604612555
 Ga        36.3126461927       36.3089684370       14.6922896131
 Ga        28.2432391668       33.6172381202       36.3221623040
 Ga        39.0102085207       25.6051415775       11.9980482701
 Ga        28.2294359690       17.3936904385       30.9287759695
 Ga        36.3135805386       14.6798688699       20.0807300908
 Ga        33.6181260064       28.2197648652       14.6970268253
 Ga        30.9207592431       22.7789977140       12.0498718888
 Ga        36.4583031288       41.3589862940       19.9241866492
 Ga        25.5390060246       25.4705497036       14.8329317760
 Ga        28.1475696752       41.5215854752       28.1426373844
 Ga        30.9278354689       22.7640532539       17.3940898592
 Ga        31.0818806168       39.0793933377       11.8413906597
 Ga        33.6956192602       33.6143849048       36.3787818366
 Ga        11.8430882728        9.4049104874       22.6076028216
 Ga        25.5376082873       25.4685063123       20.1491439578
 Ga        30.9244500955       38.8457700793       17.3060599740
 Ga        39.0001878966       22.8403229867       14.6854078961
 Ga        33.6023355253       28.2142770863       20.0916205420
 Ga        11.9186252003       11.9123575996       19.9258229870
 Ga        11.9931799231       11.9982225925       25.3885013207
 Ga        25.5409139182       25.4642143248       25.5380956076
 Ga        28.2335867296       41.6207823126       33.6247800601
 Ga        12.2425062732       14.3663354449       17.4794735835
 Ga        12.0749628139       14.6758093412       22.7653832839
 Ga        11.9885626228       14.6883056008       28.1596166354
 Ga        25.5443707697       25.4695072611       30.9274432019
 Ga        33.6096892412       28.2251879613       25.5367666404
 Ga        25.5422110704       25.5280780195       36.2313185565
 Ga        12.2437495207       17.5467224790       14.3720809510
 Ga        12.1676515598       17.3716619683       20.0797687641
 Ga        12.0079671534       17.3890530486       25.4633459926
 Ga        11.9907254306       17.3858993454       30.8620279368
 Ga        33.6280572760       28.2343679859       30.9312558585
 Ga        11.9320981249       19.9955684535       11.9169777913
 Ga        12.1733176379       20.0976052937       17.3787395804
 Ga        12.1525993063       20.0637784660       22.8403587285
 Ga        12.0056704659       20.1408220897       28.1702176972
 Ga        11.9918484781       20.0833976562       33.6171068866
 Ga        30.9137092514       38.8477644564       22.7669882205
 Ga        33.6190108182       38.9278928844       25.4679264675
 Ga        11.9091164689       22.6810269436        9.4579251921
 Ga        12.0852494688       22.7798422405       14.6826244999
 Ga        12.1661253612       22.7755277590       20.1388378630
 Ga        12.0860208306       22.7797816179       25.5302477596
 Ga        12.0024446002       22.8314663607       30.9146196085
 Ga        11.9960105400       22.8437322732       36.3119469929
 Ga        30.9225025487       38.9267198132       28.2210852216
 Ga        30.9270201434       22.7677211247       22.7893204734
 Ga        12.0067125850       25.4611922718       11.9993172162
 Ga        12.0734785439       25.5296094002       17.3813186428
 Ga        12.1531554195       25.4556448879       22.8469555833
 Ga        12.0936687600       25.5270061330       28.2323955397
 Ga        12.0617184345       25.5449592854       33.6225862804
 Ga        12.0049759981       25.6075791270       39.0128905092
 Ga        28.2272169233       17.3753167150       36.2405972240
 Ga        38.8439906829       28.2281504308       20.0910254329
 Ga        28.2327751347       33.5486508971       25.5224910427
 Ga        11.9984921147       28.2246117982       14.6859426799
 Ga        12.0761587480       28.2262489586       20.0867849597
 Ga        12.1547108158       28.1612764040       25.5523223068
 Ga        12.1631561072       28.2204183124       30.9379681447
 Ga        12.0828811659       28.2433195837       36.3842510952
 Ga        11.9151367170       28.3907085768       41.6076446687
 Ga        33.6959093787       28.2242064960       36.3153174671
 Ga        36.3846663366       25.5409083594        9.3802036376
 Ga        12.0021383064       30.9271850798       17.3806692296
 Ga        12.0762166936       30.9243941359       22.7857348469
 Ga        12.1672310908       30.9131062047       28.2300332653
 Ga        12.1692420667       30.9268736653       33.6914112059
 Ga        11.9858404582       31.0773159407       39.1495810085
 Ga        38.8331607777       33.5255603804       14.3708903503
 Ga        12.0003319620       33.6254695530       20.0828757438
 Ga        12.0754083937       33.6186230600       25.5331308415
 Ga        12.1685070298       33.6304497393       30.9320836032
 Ga        12.2510418238       33.5261886181       36.6425506398
 Ga        38.8460510461       33.6817217872       20.0862892065
 Ga        30.9369819051       39.0013352273       33.6794705070
 Ga        12.0008394562       36.3142757601       22.8378563625
 Ga        12.0807689716       36.3235538438       28.2397917085
 Ga        12.2458052412       36.6267805789       33.5243146974
 Ga        36.3156997791       14.6898487645       25.5250857993
 Ga        12.0038339091       39.0039296173       25.6085852299
 Ga        11.9317844562       39.0836760368       31.0780573590
 Ga        36.3190062730       14.6910326692       30.9165104959
 Ga        38.9996312499       33.6197811816       25.4641756151
 Ga        41.6129184847       11.9056174135       28.3956715017
 Ga        11.9133299863       41.5413095077       28.3922205505
 Ga        36.3173076022       14.6949049624       36.3097360296
 Ga        30.9328243890       22.7746516069       28.2312279396
 Ga        25.4600996883        9.3107756493       14.6777502111
 Ga        39.0809545050       33.6147480480       30.9199217535
 Ga        38.8352947487       14.4343752962       33.5268506123
 Ga        38.9344651064       22.7828802930       20.0767831260
 Ga        36.3889342087       41.6177466541       25.4594187707
 Ga        41.2894393502       36.4818917864       19.9866177834
 Ga        25.6138267156       28.1499017021       12.1552960810
 Ga        33.6219009733       20.0814526529       11.9927557379
 Ga        25.5397539981       28.2146125388       17.4603837698
 Ga        28.1596187036        9.2286194098       17.4582217425
 Ga        25.5371859387       28.1646103980       22.8376373877
 Ga        25.5441776528       28.1625824523       28.2344061920
 Ga        25.5449029775       28.2273098338       33.6058736776
 Ga        28.3139055863       17.3803854483       41.4530067165
 Ga        36.3940127923       30.9206349422       36.3164613306
 Ga        38.9329672184       22.7748642387       30.9231253606
 Ga        30.9286947516       25.4667136605       20.0929257781
 Ga        36.3080890673       36.3126691400       20.0824528411
 Ga        36.3100255618       17.3735591021       17.3800153969
 Ga        33.6283456473       28.1507320528       41.7040009946
 Ga        36.6347882960       33.5231455136       12.2323782730
 Ga        28.2335365276       33.5414033183       20.0792657810
 Ga        39.0703837597       25.4533775519       33.6176948457
 Ga        39.0057952619       22.7587915690       36.3253419974
 Ga        25.6172378301        9.5450947182       30.8471894835
 Ga        30.9319605047       25.4668828512       25.5363226423
 Ga        14.5385842792        9.7067829457       19.9888227844
 Ga        14.6092834688        9.3848810859       25.4615689719
 Ga        25.5381698327       28.1711045620       38.9196943881
 Ga        31.0766462379       41.2878201431       14.4506749441
 Ga        14.4390356158       12.1715032065       17.4741497086
 Ga        14.6721842560       12.0735026835       22.7677040619
 Ga        14.6850756968       11.9974552900       28.1641282414
 Ga        28.2301183433       36.3074681290       39.0692732364
 Ga        30.9206635347       41.4465406561       20.0656273745
 Ga        14.7050871719       14.6992651320       14.6902736864
 Ga        14.7013097253       14.6961289509       20.0895497774
 Ga        14.6872980238       14.6917413733       25.5332560588
 Ga        14.6821246983       14.6842104300       30.9208424074
 Ga        41.6214846809       36.3892923984       25.4641488883
 Ga        14.4417879829       17.5461124692       12.2388226298
 Ga        14.7739028942       17.3882369124       17.3862731951
 Ga        14.7613756559       17.3815809994       22.8372133413
 Ga        14.6816576967       17.3825834500       28.2280643512
 Ga        14.6815755916       17.3809833264       33.6168984615
 Ga        25.6181147682       30.8409835942        9.5484121884
 Ga        25.5421007214        9.3726192507       36.3899417787
 Ga        14.6023631351       19.9957953712        9.7095498416
 Ga        14.7647262283       20.1518654492       14.7590263371
 Ga        14.8382230028       20.0825998731       20.1432753737
 Ga        14.7581981624       20.0734561939       25.5412347943
 Ga        14.6827847037       20.0735284816       30.9275297393
 Ga        14.6823071437       20.0800310200       36.3160348842
 Ga        25.5458206998       30.9176080151       14.7598985686
 Ga        33.6336304202       30.9361567829       12.0871329997
 Ga        30.9271372353       25.5312357109       30.9231727856
 Ga        14.6911635297       22.7803896046       12.0830682787
 Ga        14.7723909869       22.8415094153       17.4470662913
 Ga        14.7883252069       22.7770321985       22.8439568383
 Ga        14.7040225801       22.7733104484       28.2332194160
 Ga        14.6852478818       22.7694372175       33.6250292468
 Ga        14.6871778799       22.8413992929       39.0001110266
 Ga        28.2257742211       20.0806543756       12.0602825826
 Ga        36.3123830153       25.5216832006       14.6889316929
 Ga        14.6845376078       25.4691196339        9.3832937197
 Ga        14.6969518840       25.5382745588       14.6951979160
 Ga        14.7779169088       25.5375690978       20.1029466741
 Ga        14.7865160838       25.4677524420       25.5408193743
 Ga        14.7599331431       25.4698019605       30.9264586140
 Ga        14.6961917001       25.5229510858       36.3117540879
 Ga        14.6816282799       25.5412029091       41.6197622640
 Ga        28.1564412462        9.5460422530       22.8576500434
 Ga        30.9941720405       25.5329895021       36.2999269774
 Ga        14.6879843649       28.2261965740       11.9982992089
 Ga        14.7043199749       28.2361725080       17.3802784474
 Ga        14.7758197749       28.2275288459       22.8325444727
 Ga        14.8302265378       28.2016562469       28.2320707901
 Ga        14.7666007689       28.2216835378       33.6193115476
 Ga        14.6904688664       28.2384489724       38.9368207910
 Ga        28.2394927844       20.0671814952       17.3994151372
 Ga        39.0036914526       14.6840680391       22.8417024099
 Ga        14.6907748707       30.9285943435       14.6867164164
 Ga        14.7024766980       30.9276983995       20.0754010011
 Ga        14.7755461448       30.9250865190       25.5243004027
 Ga        14.8395368055       30.9168620110       30.9254657634
 Ga        14.7593008284       30.9193366215       36.3122016553
 Ga        14.6118216338       31.0754071979       41.3611240291
 Ga        36.2487501627       25.5170956303       20.0832893010
 Ga        36.2363508560       25.5291963570       25.5315115625
 Ga        14.6920137676       33.6226437269       17.3808848390
 Ga        14.6977511974       33.6214156743       22.7712405135
 Ga        14.7760482241       33.6168813242       28.2197238233
 Ga        14.7751848995       33.6228047069       33.6217713359
 Ga        14.4446458753       33.5289800797       38.8288734924
 Ga        14.6919947334       36.3206900487       20.0813219992
 Ga        14.6987093310       36.3051628354       25.4715276041
 Ga        14.7579031260       36.3030077287       30.9121781884
 Ga        14.7662167191       36.3069135978       36.3103685258
 Ga        14.6990971151       39.0084107905       22.8330765708
 Ga        14.6830041626       38.9153729113       28.2348713433
 Ga        14.4384388349       38.7647341215       33.5223778329
 Ga        36.3150249562       17.3735608451       22.7741364348
 Ga        25.5530066694       36.3123843127       36.3163216754
 Ga        14.6858249543       41.6139172568       25.5348096622
 Ga        14.5953805985       41.2886543482       31.0790241495
 Ga        36.3045551004       17.3856926983       28.2262888846
 Ga        33.6096530121       30.9197282219       17.3879011531
 Ga        41.6863591571       14.6191968474       25.5429749188
 Ga        33.6243696592       14.6803662495       22.7765432290
 Ga        36.2278223599       30.9249983957       20.0948823896
 Ga        36.3058989946       17.3787226475       33.6209090941
 Ga        30.8476146379       41.4493593962       25.4494314257
 Ga        36.3099605749       25.5303305854       30.9323039902
 Ga        38.9248080256       28.2306100015       25.5310961854
 Ga        33.6085956497       30.9182116674       22.8376710918
 Ga        30.9313274025       41.6208093969       30.9225041673
 Ga        25.5384221866       30.9088325969       20.0865299701
 Ga        33.6236346868       17.3708157094       20.0689666699
 Ga        25.5382784504       30.8509722264       25.5302049427
 Ga        25.5445488454       30.9081680388       30.9247270070
 Ga        25.5484115222       30.9252844542       36.3028445631
 Ga        28.2385481992       20.0738275604       22.8330693305
 Ga        28.2362510318       20.0742541949       28.2287249228
 Ga        28.2338162015       20.0793936613       33.6046193312
 Ga        36.7052706678       17.5323212701       38.7611191941
 Ga        30.9206570687        9.3071134110       20.1470147445
 Ga        28.2977713828        9.5577335347       28.1601385902
 Ga        28.3190757573        9.4639558722       33.6079985272
 Ga        25.4517569491       11.9854268981       12.0022702997
 Ga        33.6238966064       30.9255695313       28.2366534496
 Ga        33.6947967082       30.9283746836       33.6270903776
 Ga        25.4682358467       11.9897539747       17.3823144410
 Ga        41.6213600179       25.5376500223       14.6119671516
 Ga        25.5362627732       12.0777119089       22.7787402890
 Ga        33.6854722980       30.8565993990       39.0139960394
 Ga        38.9119243462       22.8505418093       25.5470107638
 Ga        28.2492017607       20.0846080810       38.8444350129
 Ga        17.4495538337        9.4610105985       17.4584880597
 Ga        17.3926118918        9.5487792501       22.7571442544
 Ga        17.3810856127        9.3790865512       28.1672551658
 Ga        33.6176221059       20.0736318976       22.7766015140
 Ga        17.5423657476       12.2396666047       14.3692091551
 Ga        17.3800189184       12.1619107173       20.0882669926
 Ga        17.3842211199       12.0713604528       25.4757349828
 Ga        17.3770147023       11.9961991863       30.9200518544
 Ga        36.2967452629       33.6190005425       22.8348587762
 Ga        17.5492338869       14.3771182129       12.2332532110
 Ga        17.3899396375       14.7640580009       17.3837027982
 Ga        17.3932913426       14.7583755331       22.8309826664
 Ga        17.3756869272       14.6889870543       28.2353564787
 Ga        17.3794596975       14.6859889381       33.6201134807
 Ga        17.4638824452       17.4610986130        9.4674598581
 Ga        17.4489365051       17.3845118372       14.7698672279
 Ga        17.4557914749       17.3913108699       20.1437348642
 Ga        17.3949552865       17.3892766077       25.5424251874
 Ga        17.3771452659       17.3775781346       30.9286096718
 Ga        17.3789217132       17.3788476522       36.3127026571
 Ga        25.5461086805       33.6189123192       12.0583044197
 Ga        25.6096024958       12.1445989621       28.1575852815
 Ga        36.2894955334       33.6237832712       17.3729519850
 Ga        17.3920147645       20.0928715372       12.1691650506
 Ga        17.4614930118       20.0981166473       17.4626810695
 Ga        17.4634949796       20.0804792360       22.8451647636
 Ga        17.3941163069       20.0768015641       28.2340815554
 Ga        17.3774813864       20.0711297395       33.6227248567
 Ga        17.3791571684       20.0776428951       39.0036863807
 Ga        28.2370202768       36.2390728097       28.2273204817
 Ga        17.4622224616       22.7587864899        9.5600262262
 Ga        17.4462284189       22.8407969976       14.7731419059
 Ga        17.4668905670       22.8375626957       20.1501606483
 Ga        17.4574535280       22.7717100346       25.5394997237
 Ga        17.3944832570       22.7674789722       30.9245661100
 Ga        17.3747229259       22.7682151405       36.3115584806
 Ga        17.3841534495       22.7714963761       41.6176606427
 Ga        38.8278511080       36.6409944966       17.4763150853
 Ga        36.4750460925       31.0788867689        9.7100028179
 Ga        17.3930293176       25.5330081824       12.0791928153