    1259
 i =      170, E =    -31466.4685967187
 Hg        32.5115536891       19.6672891337       41.3790100739
 Hg        35.6841260921       19.6304242788       13.5762559216
 Hg        32.5082976056       41.4776152731       19.6602078309
 Hg         8.4592700232       28.9905524025       13.6052525982
 Hg        13.3950418463       35.6882879156       14.4517843817
 Hg        19.9469965340       40.5169527027       13.6092331426
 Hg        41.1332819532       26.7738875202       14.3951886489
 Hg         7.5805800307       25.7434954145       16.7708817274
 Hg        10.5089204703       29.1498421145       16.7719479108
 Hg        13.4839378260       32.4018490052       16.4156881596
 Hg        16.5937903668       35.4727872583       16.4503303861
 Hg        19.8270333518       38.5154392650       16.7943375080
 Hg        23.1669005183       41.3583620711       16.7820500860
 Hg        25.6262191252        6.9724638675       12.4580784965
 Hg        41.1633525203       14.0123135816       20.0608587106
 Hg        22.8997940818       32.3135268177       19.7321417265
 Hg         7.3928763943       22.7254277653       19.6718662543
 Hg        10.4490256983       25.9849807041       19.8468703469
 Hg        13.5808531363       29.1666553133       19.8034434704
 Hg        16.6183174048       32.3443838367       19.6998505822
 Hg        19.8191010955       35.4156677945       19.8297952420
 Hg        22.9602077442       38.5753027562       19.8171544490
 Hg        26.2351760365       41.6503993655       19.5972455154
 Hg        35.6915177485       10.6771222349       22.8605091753
 Hg         7.6169495130       32.4938359095       29.3168200927
 Hg        34.6934947919       22.2064932710       41.4542105299
 Hg        32.3886219832       13.6149340633       10.6540785507
 Hg        10.7173170000       13.5845828220       19.5843109171
 Hg        10.7016281611       35.3657988980       29.4242829157
 Hg         7.3831088111       19.6419320729       22.7621532266
 Hg        10.3968686868       22.8654717807       22.9279614484
 Hg        13.5403806274       26.0340694907       22.9355452221
 Hg        16.6956743640       29.2075429562       22.9020420685
 Hg        19.7709500754       32.2946375098       22.8981530245
 Hg        22.9541754811       35.4427709033       22.9317776341
 Hg        26.0763873870       38.5969306793       22.8727035352
 Hg        29.2438451949       41.5957000941       22.6998828141
 Hg        29.1332125152       13.4990644824        8.3602639160
 Hg        13.6319521816       38.3052296861       29.4152443499
 Hg         7.5368631317       16.6960728402       25.7750382684
 Hg        10.4252777924       19.7475841446       26.0644392436
 Hg        13.5511229555       22.9355911008       26.0259281342
 Hg        16.6890913694       26.0374879588       26.0520217336
 Hg        19.8105738097       29.1970738946       26.0241745306
 Hg        22.9533424050       32.3206315129       26.0320563887
 Hg        26.0776664099       35.5003869291       26.0456695795
 Hg        29.2275060475       38.5885333465       25.9598494152
 Hg        32.1455360706       41.8296808762       25.7968139182
 Hg        38.9179446666       19.5588415608       11.5276592785
 Hg        16.5105260126       41.3620079382       29.2831700189
 Hg         8.3739933579       13.5249085712       29.1086957682
 Hg        10.3195677141       16.5564400234       29.4885904519
 Hg        13.5909889649       19.8179848166       29.1400914208
 Hg        16.6992713784       22.8931414429       29.2267096872
 Hg        19.8175727638       26.0277213383       29.1985712824
 Hg        22.9868997213       29.2019046468       29.2013126248
 Hg        26.0927481628       32.3309383006       29.2214263379
 Hg        29.1627027409       35.4602586991       29.1296351382
 Hg        32.4053530118       38.5875684201       29.3196379270
 Hg        34.9103241053       41.2064520877       28.8832614163
 Hg        13.5161872528       16.8123542186       19.6993783777
 Hg        16.7260184346       19.8056153623       19.8305264210
 Hg        10.6653368623       13.6448824782       32.3594215007
 Hg        13.5093658775       16.5953620644       32.4793012079
 Hg        16.7096442022       19.7483618621       32.3931887302
 Hg        19.8087236476       22.9398987892       32.3178252690
 Hg        22.9879000082       26.0661496665       32.3254249130
 Hg        26.1299380025       29.2492543175       32.3214350763
 Hg        29.3116405725       32.4167194995       32.3448429177
 Hg        32.5505658005       35.7762678560       32.4871664429
 Hg        35.2438907788       38.8504611383       32.2160278462
 Hg        13.2838971729       26.0366662657       10.3426854926
 Hg        19.8081339029       22.9389717854       19.7830589647
 Hg        13.6580130785       13.8754795511       35.0412188039
 Hg        16.5579073577       16.5542871691       35.6728641757
 Hg        19.8885581816       19.8507038107       35.4385477403
 Hg        22.9728630650       22.9344277075       35.4936663385
 Hg        26.0945326794       26.0537356202       35.4550557842
 Hg        29.2275715210       29.1823369442       35.4202699944
 Hg        32.4633638405       32.5715505364       35.5048425307
 Hg        35.7561061689       34.5299235929       35.5925167817
 Hg        16.6402151050       29.3080553141       10.3778189614
 Hg        17.3899930336        7.4302956329       31.7278778633
 Hg        32.2188560840       19.7930270003       10.4524777908
 Hg        22.9331281687       26.0572121047       19.7723267816
 Hg        16.9494018712       13.6871487381       38.6790426719
 Hg        19.6824620809       16.6611969364       38.6277918681
 Hg        23.0175570421       19.7718235391       38.5782838823
 Hg        26.1204128843       22.9399706546       38.6163173513
 Hg        29.2319829927       26.0347044226       38.5767695071
 Hg        32.3889137491       29.3943897897       38.6918465904
 Hg        35.2816162425       31.9880821607       38.0952977217
 Hg        19.6612364751       32.3534073788       10.3896247446
 Hg         7.6213298702       19.6313057936       16.4661706775
 Hg         7.5694831376       14.2756747019       22.2456140595
 Hg        10.5099869954       16.6300879324       22.7881116012
 Hg        22.9265886196       35.6962925095       10.3355160535
 Hg        13.6012122440       19.7765508669       22.9681251060
 Hg        26.0478862168       29.1960020969       19.7821693209
 Hg        29.1665929681       32.2759569010       19.8093736212
 Hg        20.0765558818       14.0165388828       41.1354138494
 Hg        23.2436082163       16.7519909101       41.7919203167
 Hg        26.2667081347       19.7372045775       41.5980908016
 Hg        29.3563520353       22.7539358338       41.6535731337
 Hg        32.3005560468       25.7416838580       41.5195644388
 Hg        35.4204790433       29.0253076492       40.6640674609
 Hg        34.9383299611        7.8198585951       20.1637874391
 Hg        10.5307406703       22.7767227047       16.6486059541
 Hg        13.5324072465       26.0373641040       16.6487819055
 Hg        16.6498265679       29.2571121226       16.5707242908
 Hg        36.6481624903        7.0393208963       23.4387505840
 Hg        29.3045346336       38.2519283609       19.7163964971
 Hg        19.7187257876       10.4132499304       32.3990411473
 Hg        19.7240593580       16.4481636365        7.6244705972
 Hg        22.8155458167       19.5997378758        7.3364911436
 Hg        25.9673647150       23.0194323070        7.4476553766
 Hg        29.3701366070       26.1972602990        7.3296104781
 Hg        32.5204988617       29.2928677076        7.6091177174
 Hg        32.4189469541       10.4052004681       19.7066426151
 Hg        16.6878187905       22.9206455724       22.9251663774
 Hg        32.1568518445       35.5044108739       19.6994869579
 Hg        19.8114333876       26.0482680599       22.9144550638
 Hg        22.9642570565       13.4753414142       32.3357536916
 Hg        19.6060322183       13.5844630671       10.6936698990
 Hg        22.8197745199       16.6165594727       10.4936783249
 Hg        26.0957309284       19.7412408121       10.4035669545
 Hg        29.1734651889       22.9367932122       10.4041582921
 Hg        32.3605020181       26.1562475131       10.5000781017
 Hg        35.3641179400       29.3791389269       10.6877527651
 Hg        35.6785961451       13.5169763646       19.6955694859
 Hg        22.9391374209       29.1813873287       22.9074591493
 Hg        26.0523832397       32.3189339504       22.9136585783
 Hg        26.1045122395       16.5871419794       32.3959533484
 Hg        19.5918614899       10.6526179582       13.6204556848
 Hg        23.0881496409       13.3866796293       13.4666925801
 Hg        26.0884289949       16.6438444926       13.5090804151
 Hg        29.1698746364       19.8000823899       13.5713529457
 Hg        32.3328107318       22.9095347440       13.5199633265
 Hg        35.6277477594       25.9368441141       13.5155200869
 Hg        38.2738945554       29.4588026796       13.5911774037
 Hg        29.1885391509       35.3816195092       22.9227400379
 Hg        32.3025358066       38.5350783778       22.8863951300
 Hg        34.6031492891       41.1065206985       22.1912597205
 Hg        32.2631748366       18.7811006936        6.8048209497
 Hg        12.4681879786        6.9806789236       25.6026548761
 Hg        19.7016597052        7.5625327150       16.4984635571
 Hg        22.8326834202       10.4501043762       16.6867739240
 Hg        26.0885362317       13.4685131279       16.6833734007
 Hg        29.2924419266       16.5863841173       16.6406885471
 Hg        32.4184224045       19.7378512606       16.6869783896
 Hg        35.5272678827       22.8694501587       16.6078149943
 Hg        38.5593416912       26.0862951509       16.7028299006
 Hg        41.5047561851       29.3015692365       16.4905919223
 Hg        29.1880188274       19.8128892524       32.2804420525
 Hg        35.3826844518       19.9746116202        8.4161270310
 Hg        36.5954429128       23.2828110069        7.1484011670
 Hg        36.4547937050       25.6576334140       41.9733017924
 Hg        29.5353695285       16.5271393774       10.3110280720
 Hg         7.0196667689       36.4110869604       23.3160728669
 Hg        22.7876199778        7.3393145810       19.7197859957
 Hg        26.0788238627       10.3775392916       19.8145302856
 Hg        29.2268660908       13.5337399069       19.8289292014
 Hg        32.4288874824       16.6197468775       19.7274759107
 Hg        35.4672269292       19.8429817697       19.8642612124
 Hg        38.6066235999       22.9957743699       19.7779560468
 Hg        41.6240546286       26.2522080783       19.7534638374
 Hg        12.5480205126       41.9453060961       23.3013085744
 Hg        19.7464169876       32.3014956466       16.5660659283
 Hg        35.4110472909       38.2500938159       19.5088908993
 Hg        22.9178858560       35.4566151873       16.6499499771
 Hg        26.1721672044       38.4618159770       16.6301495825
 Hg        26.0235078461        7.3875034515       23.0130169215
 Hg        29.2281467054       10.3630925253       22.9476254795
 Hg        32.3624221773       13.4705951024       22.9461785619
 Hg        35.5369264043       16.5865948827       22.8801344267
 Hg        38.6107897541       19.7729484508       23.0020443748
 Hg        41.6184208892       22.9888821839       22.9999333479
 Hg        31.7491415561        7.4147622002       17.3868342904
 Hg        29.3179387783       41.3501970094       16.4540331667
 Hg         7.2024308141       23.3009767855       36.6194118044
 Hg        19.7165475385       32.5224857759       41.3662291606
 Hg        32.4176965396       22.8980628876       32.3922791035
 Hg        35.6131712471       22.9378623232       10.9180154617
 Hg        29.3192592297        7.3625219403       26.2542378170
 Hg        32.3763182287       10.4808280204       26.2016062694
 Hg        35.6359795008       13.4421250204       25.8871998883
 Hg        38.5595545400       16.6671926076       26.0850317116
 Hg        41.6225064595       19.7434486075       26.2495716699
 Hg        32.5339183782        7.5757347922       29.3345706826
 Hg        35.3742676088       10.6911848449       29.4188380473
 Hg        38.2809465578       13.5932149440       29.4509695786
 Hg        41.5230719658       16.4697950269       29.2927987973
 Hg        38.7074294042       13.6788066551       16.9346579307
 Hg        22.2932060182       34.6360230265       41.3921444734
 Hg        35.5102300305       26.0512556062       32.3210342802
 Hg        13.3942427052       10.6270504067       26.1349139215
 Hg        16.6996961938       13.4753763481       26.0627893025
 Hg        19.7920121060       16.6520884746       26.0864546354
 Hg        38.7031252249       29.5142353472       32.4554454326
 Hg        25.7596449176       36.5442666603       41.8410946653
 Hg        38.5941065031       13.1901927025       22.8708427490
 Hg        41.8196940641       16.7563230030       23.2211270226
 Hg        42.1998949472       32.2521937785       30.1679076140
 Hg         7.0607677272       12.5433831255       25.7309703550
 Hg        10.7750113856       13.3380617987       26.1079774043
 Hg        13.5259720978       16.6512967008       26.0606035529
 Hg        16.7109972412       19.7466257076       26.0807192237
 Hg        19.8218141232       22.9112475313       26.0660271395
 Hg        22.9528271622       26.0575663405       26.0602648223
 Hg        26.0974827808       29.2104866103       26.0692691733
 Hg        29.2383966700       32.3246728788       26.0418542852
 Hg        32.4022832525       35.5121628043       26.1097499500
 Hg        35.7365307791       38.6478228051       26.0457226668
 Hg        26.7881655952       14.3667783607       41.1111972916
 Hg        11.5595583525       19.5750025782       38.9054147394
 Hg         6.8767200053       30.2435309826       16.7399141063
 Hg        10.8949002204       35.2270596196       16.9971205068
 Hg        13.5275643810       38.2777451357       16.7174414822
 Hg        18.8150724395       42.1610265133       16.7415382483
 Hg        22.9522637503       19.7736149559       26.0725721961
 Hg        13.2837461165       22.9332688267       38.6324352037
 Hg         7.4650145562       28.8623768720       20.2613338659
 Hg        10.3038992470       32.3319890627       19.5929925311
 Hg        13.5333716655       35.5098303210       19.6812689219
 Hg        16.5257638524       38.6503647025       19.4321153441
 Hg        20.0283098331       41.6336033915       20.3751461493
 Hg         7.1379347550       25.6922386878       12.4688914217
 Hg         7.4667216183       25.9416468862       23.0281807744
 Hg        10.4319352052       29.1930369803       22.9463790966
 Hg        13.5001136855       32.3140996986       22.9128349693
 Hg        16.6807498023       35.4715751388       22.9166688356
 Hg        19.7781272029       38.5763697145       22.9021914966
 Hg        23.0695588547       41.5180711678       23.0154696078
 Hg        11.6182909797       29.4291308841       10.0758321128
 Hg        28.9740443053        7.3860736607       20.0753111505
 Hg        16.7354174079       26.0947308800       38.5388774732
 Hg         7.4703165612       23.0155705677       25.9430555362
 Hg        10.3996845897       26.0815235516       26.0638201272
 Hg        13.6058712101       29.1761799372       26.0259285064
 Hg        16.6117190561       32.3821899236       26.0707900098
 Hg        19.8152259478       35.4246646937       26.0159901751
 Hg        22.8897417193       38.6198247593       26.0033031190
 Hg        26.0076923294       41.5960059339       25.9651474368
 Hg        13.7998602704       32.2127625967       10.1302242483
 Hg        26.0918017193       22.9170325548       26.0664797358
 Hg        38.6506296654       16.6501415741       19.6663346654
 Hg         7.6306132776       26.7203340947       34.6285277807
 Hg        10.7243155999       29.3875863505       35.3519227732
 Hg        13.7443802207       32.3535139878       35.2379477757
 Hg         7.4116167375       20.0625139526       28.6804674514
 Hg        10.4414409781       22.9675880603       29.1366185441
 Hg        13.6042521054       26.0106961424       29.1921098218
 Hg        16.7258320061       29.1493409584       29.1548561229
 Hg        19.8452559135       32.2782690855       29.1459174381
 Hg        22.9633944093       35.3926891660       29.1513220403
 Hg        25.9888402596       38.5947246884       29.1762852884
 Hg        28.8149747408       41.1823254460       28.7709299999
 Hg        16.7622330946       35.1965263178       10.1412500357
 Hg        19.7306741278       29.2636354529       38.2598885314
 Hg        16.5169770660       19.6478673466        7.4877634965
 Hg        19.7910443684       22.6862310422        7.3819693261
 Hg        23.0179234234       25.9608418336        7.3836696456
 Hg        26.2763607806       29.2055285714        7.3767693798
 Hg        29.3106163791       32.4747784367        7.4865217385
 Hg        29.2198654329       26.0689797605       26.0675176220
 Hg        41.2086979056       20.1762397468       20.1914433037
 Hg        26.1559266274       10.6166302887       13.3855440990
 Hg        22.8440092476       32.3537864283       38.4665626666
 Hg        19.7177761583       19.7200981781       10.7260011915
 Hg        22.9848829625       22.8511483674       10.3642727191
 Hg        26.1116526675       26.0387838297       10.3772044690
 Hg        29.2689555812       29.2753418163       10.7169512977
 Hg        32.3516995562       29.2432657395       26.0997804844
 Hg        16.5327528380       29.3114095163       41.4852317371
 Hg         6.8178197915       18.8151003700       32.2454798973
 Hg        10.4685712959       19.8019533391       32.1903305279
 Hg        13.5514030125       22.9164840082       32.3084349150
 Hg        16.6346025986       26.0725518884       32.3876249596
 Hg        19.8620867871       29.1705892132       32.2757268628
 Hg        22.9436928636       32.3985248675       32.3747581655
 Hg        26.1470437021       35.5147319314       32.3649464226
 Hg        29.3650556719       38.6076560761       32.3429227509
 Hg        29.3104002025       16.4707198547       41.4996313990
 Hg        16.6794382375       13.6785303384       13.7233316223
 Hg        19.7364947222       16.8167492498       13.4958141470
 Hg        22.9853201735       19.7718379999       13.5629443544
 Hg        26.0633684424       22.9180540453       13.5346905781
 Hg        29.2126081102       26.0117501707       13.5596159654
 Hg        32.1614336731       29.2585816649       13.4838156633
 Hg        35.2588498374       32.3375395228       13.7114467609
 Hg        35.4923736357       32.3195331306       26.0713408052
 Hg        19.5535675134       37.3572254958       10.0719198416
 Hg        38.9348948661       11.4720065519       19.4927319240
 Hg        20.1821687246        7.8119204005       34.9029969367
 Hg        13.4660642071       13.5185615372       29.3303155719
 Hg        22.8726233565       10.6788564942       35.6658936247
 Hg        26.0816374823       35.6273017886       38.0646341649
 Hg        19.7363434995       13.4697305610       16.8541126916
 Hg        22.9412565493       16.5720798542       16.6008874554
 Hg        26.1059427176       19.7362312198       16.6903492455
 Hg        29.2579675831       22.8839793978       16.6691390949
 Hg        32.4089867888       26.0628836140       16.6059233803
 Hg        35.5271567151       29.2708897037       16.8443607750
 Hg        38.0705244344       35.6010189343       26.0522414067
 Hg        13.6040546608       19.6390198243       35.6630419305
 Hg        16.6373511583       22.8789383325       35.5054607175
 Hg        19.8518788668       26.0553476027       35.3886336262
 Hg        22.9927001960       29.2029572295       35.4109601514
 Hg        26.1001782672       32.3391895422       35.4647023981
 Hg        29.4091646603       35.7192651603       35.4160183354
 Hg        16.5167649216        7.5610727532       19.6809436310
 Hg        19.7534814735       10.7243484949       19.7362854674
 Hg        22.9890388353       13.5526702355       19.8143513046
 Hg        26.1113911753       16.6480179377       19.7745088883
 Hg        29.2372211646       19.7675084019       19.7960761707
 Hg        32.3449821513       22.9316409643       19.7823516288
 Hg        35.4100888673       26.0457603676       19.8180262177
 Hg        38.2829617584       29.2541334522       19.6955601376
 Hg        41.3914510365       32.5098579025       19.6769741034
 Hg        32.2678770854       38.8623884671       35.1773213300
 Hg        22.9527111156       29.1977798151       16.6541839497
 Hg        16.6581153632       16.5991387270       29.2629812085
 Hg        19.7332311607        7.3412414317       22.7703623943
 Hg        22.9478805258       10.3412266514       22.9291607493
 Hg        26.0888072627       13.4874886244       22.9487015045
 Hg        29.2687038960       16.6387311789       22.9049338779
 Hg        32.3520426893       19.7425437368       22.9292168259
 Hg        35.5231455464       22.9253496309       22.9420793170
 Hg        38.6324489089       26.0887056013       22.9191302151
 Hg        41.6732490175       29.3511909042       22.7641282882
 Hg        41.8505070525       36.5451650774       25.7238617895
 Hg        19.8218959522       19.7719733182       29.2128002731
 Hg        13.6871152173       16.8898852233       38.7208797431
 Hg        16.6484932770       19.6678465191       38.5940692153
 Hg        19.8105863865       23.0047733654       38.5807351816
 Hg        22.9568317928       26.0953786207       38.6010259511
 Hg        26.0559775964       29.1504189854       38.5545521736
 Hg        23.0255177087        7.3895134714       26.0073755601
 Hg        26.1028464499       10.3518541610       26.0843907217
 Hg        29.2235343264       13.5510818815       26.0300067528
 Hg        32.4207852430       16.5866864593       26.0857361411
 Hg        35.4196907660       19.8053207030       26.0427985273
 Hg        38.6491523670       22.9504703407       26.1079096304
 Hg        41.5584103832       25.9410083014       25.9428651052
 Hg        29.3571444348       13.5044183676       13.4526403279
 Hg        29.2231845382       32.2243476714       38.4909369753
 Hg        26.0819719428       32.3706398265       16.5863278166
 Hg        22.9460754844       22.9061071032       29.2069754978
 Hg        26.0960055212       26.0697944258       29.1938841336
 Hg        29.2301956718       29.2130007611       29.2021749302
 Hg        32.3487945388       32.4156213257       29.2471530125
 Hg        35.4492560560       35.6863708178       29.3878245596
 Hg        26.2704355591        7.3643637984       29.2977824161
 Hg        29.2922444308       10.7295658085       29.2734687732
 Hg        32.1835084134       13.4709115422       29.2850887480
 Hg        35.5434259081       16.8018701713       29.2555810963
 Hg        38.2838815654       19.6696588251       29.2236363364
 Hg        41.6809364454       22.7670303654       29.3488828291
 Hg         7.6178127461       22.2260779235       14.3593108907
 Hg        37.4006227298       38.9129939248       29.4193979890
 Hg        26.0322167826       35.4143575114       19.7765441992
 Hg        20.2224197540       20.1845195541       41.1860148427
 Hg        23.0334188270       22.9949035430       41.5903386137
 Hg        25.9840443389       25.9495159208       41.5384651249
 Hg        29.3489594683        7.5754804747       32.5168727928
 Hg        35.2888646598       13.7171526437       32.3597309858
 Hg        41.3962066581       19.6709789735       32.4892423113
 Hg        10.9185134667       26.0145568651       13.3690666307
 Hg        28.9213224771       28.7176104563       41.5558393125
 Hg        30.2749589635       32.2631033868       42.1299286130
 Hg        29.2796748679       35.4882754401       16.8250512209
 Hg        25.9053044832       13.4423137753       35.6107648631
 Hg        29.4913170420       38.9243452476       37.3639396116
 Hg         7.6330099787       16.4409212491       19.6828278719
 Hg        35.3929576804       19.5485828008       38.3104103257
 Hg        13.5766410017       29.3512060304       13.2703140917
 Hg        32.5144348145       16.5790569753       13.4916880631
 Hg        16.4989459797       32.4982163314       13.2079711117
 Hg        29.2751907886       16.8002719998       35.5180164486
 Hg        41.8301752333       23.1736205426       16.8223030561
 Hg        26.1351927816       13.3225858504       10.7663165712
 Hg        13.6248964367       29.4746560777       38.2578613340
 Hg        28.6684136637       20.0272250760        7.3651281688
 Hg        32.2205111363       23.1623936776        7.5888537256
 Hg        34.6279402065       26.7163770117        7.5756380830
 Hg        13.3085442946       11.4365468102       32.4885918797
 Hg        41.9934781646       25.6632945414       36.4356763582
 Hg        16.6039419293       13.4429299475       32.5282553159
 Hg        19.7442323859       16.6258122627       32.4017646434
 Hg        22.9521846503       19.7454733855       32.3259113495
 Hg        26.0826551750       22.9361064708       32.3221263790
 Hg        29.2558053619       26.0750504336       32.3094884076
 Hg        32.3927836911       29.2788053567       32.3765712004
 Hg        35.5189832284       32.5222869788       32.4000906936
 Hg        23.4539474678        7.0491293936       36.6345762027
 Hg        29.3838674376       38.2814512776       13.6226390446
 Hg        32.1489824390       19.6741293396       35.4972156898
 Hg        10.7267686217       19.5670365086       13.6392541615
 Hg        14.0846631122       20.0814227765       41.1669435507
 Hg        29.4712560142       13.5940884993       38.2579541167
 Hg        13.4820203078       13.3951179875       23.0665765509
 Hg        19.7119963414       13.5229175638       35.6537669560
 Hg        34.6860490568        7.5752203252       26.7873391306
 Hg        22.8979118249       16.5889217752       35.5099361589
 Hg        22.2680910813       14.2689510191        7.5389618840
 Hg        16.6184395118       16.5794863162       22.9111740915
 Hg        13.5424440626       23.0220743812       13.3622202904
 Hg        26.0667671015       19.8031244682       35.3933390223
 Hg        14.0498016559        7.8877261146       28.8916553803
 Hg        16.6450080645       10.3970465094       29.3237915444
 Hg        29.2147045732       22.9394374524       35.4188785283
 Hg        41.1350686010       14.3664010505       26.7696539546
 Hg        16.8652166634       23.1802785468       41.8086374920
 Hg        19.7962861038       26.2624008649       41.5963842537
 Hg        32.3578695520       26.0586700779       35.5000655048
 Hg        35.5600573385       29.2884732807       35.4673289746
 Hg        38.3313377946       32.2562309417       35.4458106698
 Hg        19.8131440073       19.7628834249       22.9639644508
 Hg        16.6633482679       35.2537713105       35.2543161434
 Hg        19.5491545076       38.2680749668       35.3824636013
 Hg        22.2437826014       41.1120907046       34.5771210106
 Hg        35.5569471548       23.0081192381       35.5380828354
 Hg        16.6303673298       26.0940952471       13.4735821589
 Hg        19.8594086183       29.1177626334       13.5218740488
 Hg        22.9530063209       22.9088904053       22.9226197485
 Hg        38.2731191846       26.0585231653       35.6201423911
 Hg        14.4171998845       22.1780513665        7.8817432356
 Hg        16.8743318301       25.7758147385        7.1523200497
 Hg        20.2108020298       28.7649564569        7.7989145279
 Hg        23.1814891284       32.1106010212        7.1494967980
 Hg        26.7819244539       34.5694623495        7.8688264750
 Hg        19.8439243894       13.5392536872       29.2040306337
 Hg        22.9248164072       16.6420081594       29.2429855918
 Hg        26.0565042779       19.7670353765       29.2044623555
 Hg        29.2296567346       22.9443339032       29.2037891359
 Hg        40.6654776019       29.0428951496       35.4881845328
 Hg        13.6183031067       19.4825043982       10.7292620722
 Hg        16.7247391491       22.8765828456       10.4426991689
 Hg        19.8113265362       25.9404076472       10.3901233956
 Hg        23.0215930699       29.1840109820       10.3907402701
 Hg        26.0957095493       32.2648329199       10.4389747252
 Hg        29.4728660398       35.3783240890       10.7182840297
 Hg        26.0860743688       26.0537550371       22.9240647334
 Hg        32.3351503690       26.0761200230       29.2323322708
 Hg        29.2274778706       29.1954594940       22.9542651670
 Hg        32.2040200191        7.4973057312       23.2950524747
 Hg        10.7807120936       19.7143603765       19.7214571428
 Hg        14.1058468852       28.8685634111        7.7803384626
 Hg        13.7504719957       16.5961116127       13.7463059433
 Hg        16.8715565335       19.6940182697       13.4752056084
 Hg        19.8456903413       22.9119948769       13.5941793678
 Hg        22.9450176642       26.0350195371       13.4834053186
 Hg        26.0659695253       29.1536767360       13.5928564888
 Hg        29.2854485893       32.1295301245       13.4672645744
 Hg        32.3539939420       35.2599614008       13.7312885225
 Hg        32.4047029913       32.3891824560       22.9110497959
 Hg        20.0895267352       34.8700313109        7.7787195655
 Hg        13.7426354823       13.6743270929       16.6559688044
 Hg        16.7313302438       16.6820805171       16.7039584151
 Hg        19.8577223007       19.7930056523       16.7130619297