     608
 i =       64, E =    -18239.5090846178
 In         8.1327130910       10.8538748683       17.1148409489
 In         8.1487794959       14.0742320114       14.2350802878
 In         7.9747224832       13.9872291281       20.1626167581
 In         8.1447723378       16.9491178396       10.8591909468
 In         8.1531338342       17.0314337880       17.1170872679
 In         7.9632205631       17.0295144453       23.2063155225
 In         7.9014887554       20.0003153669       13.9899455770
 In         8.0855396715       20.0024126190       20.0946687184
 In         7.9028260748       20.0857442065       26.2512251044
 In         7.8946944548       22.9785558649       17.0348945131
 In         8.1455071541       23.0492169220       23.1290139271
 In         8.0650008677       23.2165923243       29.2228897241
 In         7.9007428214       26.0271085511       20.0177990476
 In         8.2417640101       26.1745958868       26.1857900399
 In         8.0493437784       29.1357433970       23.1215696948
 In        10.8582758208        8.1331718913       17.1119407600
 In        10.9396995032       10.9405794882       14.6449944783
 In        10.9512576788       10.9535773107       20.1573592242
 In        11.1194134479       14.2283409468       10.6978904066
 In        11.0281269191       13.9885866282       17.2060425897
 In        10.9432989822       13.9822488082       23.1272815395
 In        10.8579594515       16.9462138651        8.1371452743
 In        11.0224855966       17.1143956380       13.9863206764
 In        11.0204067490       16.9582230420       20.1613542090
 In        10.8724560522       17.0334573712       26.1743832332
 In        10.9385531529       20.0668855742       11.0133115624
 In        10.9536222184       20.0752676733       17.0322336817
 In        10.9508018236       19.9956010082       23.1289573150
 In        10.9311147289       20.0157134782       29.1344079395
 In        10.8630276957       23.0466522218       13.9906503280
 In        10.9505533256       23.0421282585       20.0003543356
 In        11.0128986879       22.9855914579       26.1048964063
 In        10.7749227014       23.2207729554       31.9404444680
 In        10.8626418964       26.0154458231       16.9603957885
 In        10.9462654922       26.0169179023       22.9648684432
 In        10.8623133579       26.1731633765       29.1332979808
 In        10.8646935754       29.0423757901       19.9328717528
 In        10.6186739900       28.8908428138       25.8523023665
 In        10.7763003754       31.8544035984       23.0530301353
 In        14.1454793625        8.2176082892       14.2357022983
 In        13.9881509574        7.9756066582       20.1553513043
 In        14.1576252412       11.1217090958       10.7058494467
 In        13.9914193049       11.0302446701       17.2066381876
 In        13.9119428076       10.9441500378       23.1269154304
 In        13.8247551840       13.8338149722        8.3161048220
 In        14.0041516938       14.0647692836       13.9824283119
 In        13.9879776804       13.9905914796       20.1561391056
 In        14.2275221247       14.2420511206       25.8556676136
 In        13.9828945263       17.0989978443       11.0319624114
 In        13.9938110879       17.0338451439       17.0431847315
 In        13.9838385555       17.0300051552       23.1184807421
 In        13.9046084160       17.0297642679       29.1373470170
 In        13.9102578527       20.0016468121        7.9827136407
 In        13.9166273110       20.0759217228       13.9936329118
 In        13.9847530362       20.0058222909       20.0714563315
 In        13.9165006267       19.9999379534       26.0897232748
 In        13.8259340210       20.0783143396       32.1067131584
 In        13.9133872983       23.0473956240       10.9446063403
 In        13.9061303489       23.0406128688       16.9604498799
 In        13.9816004721       23.0395019168       23.0412142963
 In        13.9042136844       22.9806746225       29.0423354657
 In        13.8963874926       26.0796183297       13.9760028036
 In        13.9059987124       26.0183681531       19.9278236162
 In        13.9079091444       26.0118766212       26.0961274179
 In        13.8132073947       26.1751201782       31.6954710862
 In        13.8991886538       29.0592876066       16.9618230781
 In        13.8335752294       28.8989383894       22.8895524119
 In        14.1476297015       28.8931470864       29.3784992627
 In        13.9005317063       32.0188455481       20.0002346702
 In        14.0675642128       31.7720731202       25.9245515187
 In        16.9460230146        8.1501067733       10.8629567862
 In        17.1017678884        8.1591459608       17.1179642411
 In        17.0317514468        7.9762498217       23.1354363880
 In        16.8736070708       10.8601476549        8.1391230326
 In        17.1110995449       11.0917117418       13.9806343723
 In        16.9584080743       11.0238734239       20.1603402601
 In        17.0279116578       10.9399128844       26.1718271439
 In        17.0348634248       13.9852792029       11.0319310894
 In        17.0258283109       13.9961520230       17.0400304638
 In        16.9648809828       13.9934444089       23.1208170386
 In        16.9554103951       13.9170501819       29.1387823979
 In        16.9466078518       16.9478384781        8.2219089228
 In        17.0218366961       17.0284838639       14.0633603352
 In        17.0196861892       16.9691918172       20.0783603159
 In        16.9628077031       17.0295273566       26.0901942905
 In        16.8731567679       17.0250420062       32.1011345605
 In        16.9464915457       20.0170961744       11.0300075687
 In        16.9551209193       20.0047966374       17.0355490258
 In        16.9680862374       20.0093892504       23.0497072875
 In        16.8792451204       19.9988617770       29.0545398533
 In        16.9487429111       22.9735316821        7.9814980266
 In        16.8780605897       23.0420969651       13.9833525545
 In        16.9555679468       23.0385933982       20.0064204412
 In        16.9614806178       23.0331123334       26.0193111478
 In        16.8823436085       23.0544481501       31.9224646091
 In        16.8778418208       26.0806598188       10.9456415311
 In        16.8854898227       26.0161664314       16.9641648834
 In        16.9547528964       26.0122221132       23.0398557607
 In        17.0333305959       26.0173972249       29.0467054335
 In        16.8806001223       29.0616733537       13.9855083141
 In        16.9424623467       28.9687773231       19.9292491598
 In        17.0370050747       28.9640068524       26.1025072271
 In        16.8696924547       29.1412603136       31.9583037766
 In        16.9445467401       32.0251082526       17.0271325527
 In        16.9557929952       31.7704993134       22.9752268062
 In        16.9449344581       31.8561030942       29.2231812118
 In        20.0748666752        7.9798383955       13.9906279800
 In        20.0800144781        8.1605803066       20.0958550596
 In        20.0187469583        7.9793601113       26.1754524593
 In        19.9993355969       10.9490056574       11.0160737547
 In        20.0776540636       11.0213720776       17.0309363880
 In        20.0005479407       11.0210084693       23.1278311434
 In        20.0041381692       10.9456758670       29.1342795357
 In        19.9867401464       13.9020148992        7.9855873334
 In        20.0797305258       13.9891285812       13.9874397780
 In        20.0078267673       13.9932038017       20.0811016244
 In        19.9276740030       13.9956772439       26.0869249730
 In        19.9266431509       13.9838264681       32.1016412274
 In        20.0048457369       16.9459532028       11.0274953114
 In        20.0072043486       16.9626580963       17.0332107504
 In        20.0002416971       17.0243474763       23.0514445425
 In        19.9144334212       16.9536930587       29.0555660680
 In        19.9882218298       19.9845232819        8.1539496642
 In        19.9882484709       20.0028400663       14.0029016698
 In        19.9954641444       20.0024878715       20.0101908218
 In        19.9931561153       20.0096192949       26.0840883632
 In        19.9194161595       20.0081500294       31.9176723476
 In        19.9051096378       23.0477198444       11.0331501433
 In        19.9240073444       23.0375473567       17.0344909589
 In        19.9942694735       23.0365792424       23.0526161187
 In        19.9980667710       23.0449246989       29.0585116661
 In        19.9228806657       26.0191919325        7.9828152420
 In        19.8483526211       26.0129378259       13.9907359936
 In        19.9860278856       26.0107547556       20.0664810061
 In        20.0688390204       26.0163765889       26.0956347230
 In        19.9898789747       26.0903199338       32.0999768910
 In        19.9169907025       29.0566679616       11.0172870250
 In        19.9139929208       28.9721892528       16.9599253809
 In        19.9985183140       28.9758426319       23.1165236237
 In        19.9983938446       29.0462339940       29.1260063173
 In        19.9192343791       32.0220845346       13.9845789034
 In        19.9942074972       31.8383422599       20.0028532889
 In        19.9897676455       32.0259697364       26.0968273562
 In        23.0590916515        7.9743931054       17.0405891604
 In        23.1203005067        8.1579496418       23.1311086602
 In        23.1311965939        8.0666607791       29.2218657880
 In        23.0503524262       10.9400044619       13.9917442958
 In        23.0620361067       11.0163157888       20.0091850308
 In        22.9637987703       11.0280087253       26.0952860973
 In        23.0533624535       10.8564985280       31.9374015754
 In        23.0432200133       13.9115711171       10.9504749017
 In        23.0541885747       13.9176564688       16.9591317840
 In        23.0423793959       14.0001550488       23.0543343340
 In        22.8891603233       13.9119798668       28.9850607988
 In        22.9619436797       16.8753976179        7.9783046917
 In        23.0447669318       16.9435755410       13.9884369238
 In        23.0375086088       16.9595563665       20.0065453309
 In        23.0365974426       17.0249225025       26.0794011933
 In        22.9669751819       17.0352701602       31.8540676566
 In        22.9711424973       19.9140640599       11.0342342759
 In        22.9697163865       19.9971395767       17.0384174125
 In        22.9710838170       20.0063437320       23.0492835891
 In        23.0399592475       20.0803158566       29.0585035575
 In        22.9651268765       22.9650169962        8.2272280875
 In        22.9586045211       22.9691645392       14.0651163375
 In        22.9702511009       23.0373639585       20.0774519380
 In        23.0407066750       23.0492407539       26.0911973151
 In        22.9685856244       23.0455129796       32.1056088654
 In        22.8054295589       26.0862145439       11.0988310116
 In        22.9598041305       26.0056010809       17.0386163555
 In        23.0384886238       26.0747727477       23.1198459450
 In        23.0384906065       26.0202075643       29.1346307826
 In        23.0478624334       29.1456202742        8.2241930113
 In        22.8810621889       28.9787976538       13.9969423755
 In        22.9780352756       28.9822807601       20.0817978231
 In        22.9703266447       29.0629853313       26.1042220144
 In        23.0502980293       31.9336815084       10.9356681890
 In        22.9746731021       31.8422023895       16.9620456555
 In        22.9716136185       32.0235921661       23.0505574851
 In        26.1655889157        7.9777383376       20.0891886745
 In        26.1838411362        8.3852696621       26.2556382976
 In        26.0856469181       10.8740949061       17.0354961764
 In        26.0909077713       11.0327748256       23.0459658229
 In        25.8515414687       10.6995747567       28.9731841076
 In        26.0845229315       13.9055331017       13.9901289054
 In        26.0200853425       13.9819329298       19.9972951054
 In        26.0832834704       13.9919336338       26.0873401825
 In        25.9247928365       14.1488574905       31.8542448026
 In        26.0111374589       16.8762173309       10.9487921895
 In        26.0156384077       16.9484984047       16.9647150048
 In        26.0028256053       17.0257835467       23.0510739719
 In        26.0932207004       17.1121255247       29.0459562824
 In        25.9374818167       19.8494372282        8.0526794888
 In        26.0109634604       19.8539531157       13.9912608737
 In        26.0026629042       20.0016283124       20.0746512837
 In        26.0147152111       20.0874605720       26.0924814731
 In        26.0866462311       20.0768914099       32.1027782223
 In        25.9255057356       22.8823084860       11.1078303365
 In        25.9344932765       22.9662952520       17.0449962324
 In        26.0107495115       23.0496817545       23.1226545730
 In        26.0168616076       23.0495728214       29.1346420124
 In        25.9295436334       25.7750054432        8.2169932196
 In        25.9338853253       26.0785633412       14.0682770110
 In        26.0057869033       26.0139460880       20.1535067758
 In        26.0180377989       26.0869194468       26.1053230283
 In        25.7662090576       29.3132440794       11.1920907538
 In        25.9387770128       28.9834038833       17.1187145881
 In        26.0090316464       29.0670346663       23.1174366638
 In        26.0941954654       31.6877169922       13.9049631163
 In        26.0068067290       32.0202172886       20.0745413373
 In        29.2151655315        8.1330254429       23.2909169610
 In        29.0537590180       10.9504629189       20.0811238954
 In        29.1307945026       10.9460994077       26.1909373062
 In        29.0575289016       13.9094977366       17.0395965662
 In        28.9634514724       13.9809123383       23.0461678245
 In        29.3813356466       14.1624767341       28.9675771428
 In        29.0642254607       16.8793630705       13.9969251873
 In        28.9738733292       16.9533841180       20.0078287468
 In        28.9705303132       17.1066804601       26.0966500090
 In        29.2269657340       17.0270760558       31.8659666013
 In        28.9036902242       20.0886355699       11.0981236177
 In        28.9729257374       19.9141183244       17.0311559163
 In        28.9807831321       20.0812930447       23.1238192513
 In        29.0511437420       20.0852857333       29.0588067541
 In        29.3916156671       22.4690337999        8.2324711834
 In        28.9020816005       22.8761381384       14.0743244998
 In        28.9712340511       23.0510669455       20.0922530842
 In        29.0526190518       23.1182095821       26.0951000841
 In        29.0644801946       25.2719790981       10.8682186659
 In        28.8999844089       26.0883421136       17.1933588104
 In        29.0526486197       26.0866448479       23.1193013127
 In        28.8041164045       29.3125498656       14.2365643926
 In        28.9747959069       29.0600955505       20.0787816419
 In        29.0551427233       31.9343527014       16.9509270631
 In        31.8745165673       10.8585855930       23.2258347022
 In        32.0242928715       13.9051233696       20.1583152420
 In        31.6887844169       13.8907671550       26.1873091627
 In        32.0223407861       16.8739742489       17.1125228794
 In        31.7761111780       16.9668917015       23.1263321609
 In        31.9444773988       16.9484655185       29.1471981933
 In        32.0127688989       19.8407712577       14.0782986025
 In        31.8393564440       19.9825268411       20.0901133994
 In        32.0213566072       20.0768768902       26.1569894163
 In        31.9331123092       22.8039285700       10.9367388984
 In        31.8368748943       22.9608446602       17.1074341768
 In        32.0203396032       23.0473826300       23.0562206838
 In        31.7718512263       25.7775918415       14.1437032781
 In        32.0157024814       26.0924905215       20.0803431785
 In        31.7743955967       29.2164116454       16.9533198227
 As         9.2506706522        9.2481476247       15.4097214234
 As         9.4588465214       12.5012799392       18.6117758088
 As         9.2616111037       15.2683812317        9.2878983773
 As         9.6353203879       15.5470324419       15.6177385992
 As         9.4271231163       15.5352845275       21.6259160318
 As         9.4190250694       18.4911173007       12.5243832269
 As         9.5594634747       18.5105269248       18.6160492791
 As         9.3909352616       18.5864599117       24.6529109692
 As         9.3740668225       21.4656921210       15.5382375190
 As         9.5063026653       21.5148280478       21.5734277429
 As         9.4421811976       21.5911696177       27.6349068509
 As         9.3736340306       24.4725490410       18.5362902464
 As         9.5463112698       24.5511754587       24.6026333296
 As         9.2534337429       24.8770440700       30.7427524130
 As         9.3966323078       27.5205851500       21.5207675197
 As         9.3221976034       27.8060868510       27.7699965241
 As         9.2259421493       30.7407588491       24.7446778254
 As        12.5010431078        9.4631377053       18.6105681552
 As        12.1958661236       12.2349276256        9.4535384119
 As        12.5794139728       12.5813803358       15.6465352616
 As        12.4576151904       12.4819343483       21.6078439522
 As        12.4635016226       15.5385445307       12.5125511902
 As        12.5314963827       15.5238697501       18.6140257213
 As        12.4160722817       15.5478322002       24.5989260536
 As        12.4479931270       18.5023014155        9.5029021273
 As        12.4768844689       18.5446146409       15.5602706449
 As        12.4764033686       18.5212175429       21.6059768728
 As        12.4319643030       18.5222090609       27.6059914926
 As        12.4208483138       21.5551672224       12.4997303243
 As        12.4751648752       21.5126157594       18.5434148956
 As        12.4830348745       21.5180520356       24.5451432655
 As        12.3951889116       21.5914540274       30.6150544048
 As        12.3945964861       24.5242697229       15.4756996589
 As        12.4694364535       24.5057919094       21.5003409948
 As        12.4062313621       24.5580634409       27.6191249371
 As        12.3912898508       27.5277302283       18.4566097260
 As        12.4181277927       27.4964038249       24.5264427768
 As        12.2169061109       27.8180850919       30.6610794639
 As        12.4044690014       30.5290674683       21.4918396253
 As        15.2264633296        9.2590707461        9.3174527105
 As        15.6066289224        9.6753857254       15.6439783586
 As        15.5076266916        9.4516439774       21.6185411565
 As        15.4776781061       12.4875383490       12.5208220901
 As        15.5235964709       12.5382953436       18.6162190315
 As        15.4991052575       12.4156577602       24.5968908602
 As        15.4199271419       15.4488488963        9.6046264761
 As        15.4947368186       15.5052724924       15.5498878553
 As        15.4870822027       15.5128269229       21.6098006430
 As        15.4982169099       15.5327259209       27.6516438946
 As        15.4824670196       18.5255519455       12.5702491996
 As        15.4946596203       18.4882585071       18.5753809727
 As        15.4732674003       18.5341774786       24.5880314292
 As        15.4071882886       18.5707174346       30.6438170104
 As        15.4661272882       21.4606523341        9.4658570603
 As        15.4450682864       21.5057941324       15.5211676121
 As        15.4820811313       21.5253485703       21.5415584725
 As        15.4477901149       21.5234350899       27.5319266906
 As        15.4097556100       24.5428495254       12.4609488705
 As        15.4320060207       24.4957855629       18.4826709727
 As        15.4449818752       24.5451864161       24.5546385361
 As        15.4240997649       24.5426305558       30.4720431518
 As        15.4177479710       27.5463148443       15.4940374658
 As        15.4597296384       27.4680508704       21.4612178284
 As        15.4717920786       27.5120815927       27.5699403518
 As        15.4531218869       30.5460505152       18.5259265704
 As        15.4711064653       30.2942705043       24.4510834983
 As        15.2495482637       30.7461004367       30.7720385202
 As        18.4730124898        9.4387011451       12.5441616187
 As        18.5460618513        9.5979589124       18.6206279020
 As        18.5451968869        9.4540208566       24.6020544882
 As        18.4475227536       12.4578085440        9.4938445993
 As        18.5591282177       12.5291027365       15.5456203182
 As        18.4967401440       12.5078888517       21.6086526866
 As        18.5063204406       12.4754791507       27.6276750569
 As        18.4938431069       15.4914475218       12.5517409149
 As        18.5071529780       15.4791953752       18.5571511016
 As        18.4702626071       15.5296737066       24.5715517256
 As        18.4319974797       15.5192782919       30.6384170272
 As        18.4785890549       18.4818626951        9.5751481309
 As        18.5081694398       18.5124485861       15.5571442570
 As        18.4924275851       18.5154227648       21.5459869041
 As        18.4573219125       18.5260775851       27.5892862772
 As        18.4462033586       21.5090066195       12.5303373056
 As        18.4597352921       21.5050756252       18.5320031925
 As        18.4888589276       21.5085102805       24.5508229011
 As        18.4185385477       21.5289219400       30.5174609024
 As        18.4489313272       24.4916868907        9.4598556283
 As        18.4075495067       24.4935878237       15.5070048501
 As        18.4641585332       24.5089314261       21.5385238297
 As        18.4963885178       24.5035923132       27.5302715731
 As        18.4038781108       27.5407013276       12.4839059323
 As        18.4654888200       27.4550071073       18.4880969230
 As        18.4933064349       27.4624997859       24.5653344640
 As        18.4485122244       27.5306326407       30.6048960643
 As        18.4538031983       30.5472430023       15.5233826754
 As        18.4933030721       30.3920147697       21.4899340499
 As        18.4673396768       30.5396431572       27.5613551965
 As        21.5059787407        9.4458895323       15.5624842015
 As        21.5665816757        9.5641372779       21.6079401474
 As        21.5533436778        9.4632923367       27.6196843370
 As        21.5218017293       12.4470862643       12.4895965148
 As        21.5249991103       12.5134994534       18.5507322772
 As        21.4922815225       12.5439634412       24.5809138883
 As        21.4881364649       12.5064301409       30.6381407762
 As        21.4419292529       15.4427767705        9.4765124003
 As        21.5295734514       15.4782251813       15.5223889027
 As        21.5145684344       15.5054886845       21.5576874249
 As        21.4605033379       15.5223611819       27.5422329802
 As        21.4738634797       18.4504677544       12.5375920502
 As        21.4959614961       18.4713588201       18.5355197862
 As        21.4938698431       18.5056123922       24.5786803035
 As        21.4432977505       18.5347101191       30.4771201418
 As        21.4465263853       21.4769327218        9.6108055377
 As        21.4445535822       21.4990163199       15.5545734037
 As        21.4684250971       21.5072996047       21.5423271821
 As        21.4964326862       21.5329627288       27.5661497853
 As        21.4264259364       24.4775876025       12.5685779449
 As        21.4629857914       24.5044481978       18.5386596953
 As        21.5204525139       24.5168630202       24.5562646078
 As        21.4451899720       24.5113666300       30.6259213821
 As        21.4361459854       27.5214764705        9.4786602456
 As        21.4300764763       27.4558615209       15.5006918492
 As        21.4802120977       27.5007315411       21.5759287040
 As        21.5068525949       27.5336202936       27.6220625442
 As        21.4739314411       30.5550651298       12.5133332481
 As        21.4769939675       30.4203615969       18.4851794919
 As        21.4452248059       30.5619228122       24.5378302701
 As        24.5358950648        9.4108835485       18.5998027758
 As        24.5679663374        9.6077294639       24.6197139119
 As        24.7337142676        9.2955224990       30.8160148495
 As        24.5676951352       12.3990804095       15.5096932230
 As        24.5317849750       12.5025506874       21.5428700165
 As        24.5185552401       12.4950923785       27.5786097688
 As        24.5226671749       15.4178954217       12.4878262192
 As        24.5086524033       15.4617218598       18.4823441892
 As        24.5322975885       15.5029951437       24.5851617768
 As        24.4439357989       15.5475865119       30.3820160308
 As        24.3997296192       18.4097661977        9.4942791966
 As        24.4710430314       18.4676441919       15.5285347369
 As        24.4772025833       18.4989137758       21.5433338388
 As        24.5118007765       18.5507768282       27.5718349944
 As        24.4339487490       21.4043625706       12.5788507993
 As        24.4581115992       21.4910569213       18.5721888102
 As        24.4794534605       21.5158190198       24.5573520270
 As        24.4796199631       21.5132220674       30.6514501463
 As        24.3915747775       24.4756514333        9.7179366388
 As        24.4724348122       24.4969896316       15.5271954143
 As        24.4758535044       24.5147943023       21.5994118262
 As        24.5216379291       24.5366687683       27.6017786155
 As        24.4432409185       27.5073499453       12.5128711646
 As        24.4643043805       27.4586250350       18.5862119321
 As        24.4963119342       27.5825245495       24.6024347469
 As        24.7076697921       30.7326418234        9.3501216970
 As        24.4807950480       30.4075868247       15.4853941301
 As        24.4547669387       30.5428118642       21.5303041779
 As        27.5842286328        9.4511035946       21.6465866902
 As        27.7831717050        9.4361599617       27.8783726247
 As        27.5335587760       12.4369092907       18.5476450013
 As        27.5687529730       12.4664586220       24.6186068361
 As        27.5509472392       15.4351993605       15.5192968855
 As        27.4737659355       15.5006390693       21.5392833591
 As        27.5522786952       15.5245195306       27.6115622758
 As        27.5304362125       18.3871192194       12.4778580791
 As        27.4585673779       18.4682199719       18.5389020296
 As        27.4666560262       18.5556691926       24.5653228923
 As        27.5406877517       18.5573586363       30.6012305643
 As        27.3572594055       21.4634708665        9.5141992372
 As        27.4220954072       21.4067057278       15.5641057896
 As        27.4818036490       21.5331755047       21.5741597590
 As        27.5254922079       21.5795566422       27.5779775747
 As        27.4033407187       24.4152911933       12.6004420389
 As        27.4279604277       24.4837520342       18.5721323040
 As        27.5215937513       24.5715201420       24.5771660243
 As        27.4688153866       27.5188499394       15.5674518296
 As        27.5087289669       27.5499886178       21.5913042468
 As        27.7230910967       30.5823827412       12.2765417156
 As        27.4632298175       30.5490728799       18.5110925104
 As        30.7423514478        9.3344001979       24.9223885447
 As        30.5179935136       12.4661024834       21.6425982308
 As        30.6770070514       12.2788097493       27.8361762777
 As        30.5434707533       15.4338069345       18.6272179826
 As        30.3778648679       15.4905859577       24.6185531465
 As        30.7839948488       15.3279247023       30.7765713658
 As        30.5332038327       18.4121235752       15.6090847152
 As        30.4011833916       18.4978832309       21.5799520036
 As        30.5429882027       18.5238036743       27.5791573738
 As        30.5207100142       21.4491377557       12.6501933709
 As        30.4068241634       21.4691577183       18.5760876276
 As        30.5560716743       21.5418837740       24.5674008271
 As        30.8006341827       24.4108877161        9.2518071609
 As        30.2971067524       24.4356501967       15.6539567957
 As        30.5382841928       24.5326997524       21.5269621430
 As        30.5193900683       27.5568943291       18.5368441227
 As        30.6387942375       30.7624073258       15.2703833613
 Cl         6.8277094153       12.4349096093       15.3504109361
 Cl         6.0673992873       13.0109163495       20.9538714701
 Cl         6.8968606122       15.0230939093       12.4780779746
 Cl         6.7374077897       15.5466252435       18.4267334573
 Cl         6.0731400112       15.9608387390       23.9231056014
 Cl         6.0784063336       17.7835901974       10.2920565308
 Cl         6.6997833782       18.2750207053       15.6368685267
 Cl         6.6905468817       18.5609390457       21.4675746076
 Cl         6.0206955339       18.9589362852       26.8936985103
 Cl         5.9323330066       20.8040486729       13.1625311795
 Cl         6.6391600669       21.2920589774       18.6444039514
 Cl         6.7044011644       21.5932483835       24.4579496087
 Cl         5.9518188704       23.7589559811       16.1177724398
 Cl         6.7007018461       24.3337945583       21.6410567274
 Cl         6.7901280601       24.5926502759       27.3800401864
 Cl         5.9701849501       26.7782520233       19.0500250843
 Cl         6.7989497010       27.3474174103       24.5479668771