     691
 i =       95, E =    -18038.0710007669
 Hg        20.0649334858       25.9013141672       19.9572770905
 Hg        23.0507715685       28.8823086877       19.9950161491
 Hg        26.1388206295       31.7136986925       19.8968846830
 Hg        28.9284287371       34.9019787950       19.9656557954
 Cl        27.2071329580        6.6223805229       18.3223703762
 Hg        35.2846219115       22.6412222763       29.9746569215
 Hg         9.5740924365       14.2496064975       20.0192665099
 Hg        11.1714824563       17.3505782036       20.0649888663
 Hg        14.2246537751       20.0643735973       20.0689272682
 Hg        17.0993740855       22.9428220755       19.9776293452
 Hg        23.0377345781       25.8995731829       22.9835932717
 Hg        25.9564458256       28.9005027920       23.0004992667
 Hg        28.9831328048       31.8131255732       22.9919392527
 Hg        30.9776867377       34.4860946447       22.3735719697
 Hg        23.5093932568       28.2794671909        8.1979692660
 Hg        17.0224882415       13.9975551963       17.2076051217
 Cl        36.3819752640       18.4878374991       15.5887130446
 Hg        11.1670455570       13.8761550554       23.5658192218
 Hg        14.1719041318       16.9481017859       22.9544147818
 Hg        17.0853617112       19.9558122453       23.0646593709
 Hg        20.0617139935       22.9207743680       22.9824175720
 Hg        26.0420648978       25.9289321311       25.9553498411
 Hg        28.9639389992       28.9642431633       25.9843671980
 Cl        18.5122410302       36.3896544772       21.8618976655
 Hg        20.0580477917       16.9548661370       17.0353191365
 Hg        14.2449024587       19.9218485499       14.0454313880
 Cl        21.8397523068       18.4414231512       36.2651125850
 Hg        14.2029660410       13.8347351185       26.0908904645
 Hg        17.0656931837       16.9512255201       26.0356414339
 Hg        20.0559288779       19.9689058721       25.9781578055
 Hg        23.0569346755       22.9210422633       25.9648631134
 Hg        29.0532860961       25.9364716616       28.9762175090
 Hg        31.0892405435       28.9251511857       28.9527351934
 Hg        14.0750591066       33.3080967179       23.0632634919
 Hg        34.1317046663       25.7981400797       28.6659370129
 Hg        22.9551850292       14.1416470122       22.9445541830
 Hg        14.2898864884       10.6901185479       28.7581672282
 Hg        16.7864607173       14.0286287619       29.1216516604
 Hg        20.0813813243       16.9973752816       28.9300990495
 Hg        23.0435530798       19.9314716363       28.9202657814
 Hg        26.0550114610       22.9388919079       28.9305750738
 Cl        20.7986697376       12.8419093373        6.6200871187
 Hg        29.0608172293       14.0287123719       16.9948705430
 Hg        25.9879466913       17.0321097202       22.9519086141
 Hg        31.8587009794       19.8783075361       25.9346612105
 Hg        25.9728268392       19.9425117318       19.9910255078
 Hg        22.9430614306        8.3100167576       17.1159858336
 Hg        26.0401346819       11.0842377234       17.1309303737
 Cl        36.3543202143       15.8451362351       18.4548167448
 Hg        20.0513634246       13.9619538556       31.8035347627
 Hg        23.1581278972       16.8053355458       31.7866977465
 Hg        26.0528724584       19.8927888882       31.7942376934
 Hg        29.1089072533       22.8128589869       31.5857974940
 Hg        23.0557042040       23.0509114643        8.2850769806
 Hg        34.4132467825       28.7928757205       25.5179571473
 Hg        23.0769684876       14.0759427490       34.9633839215
 Hg        26.2158312580       17.0455257954       34.6863233818
 Hg        28.4278835250       19.4183776074       34.7003470119
 Hg        30.1207009336       22.6959364582       35.1377973013
 Hg        22.9273503859       11.2478888140       14.0150706112
 Hg        23.0284080966       19.9519584432       11.1778831813
 Hg        14.1838883127       11.1570792373       22.9708392986
 Hg        28.8993375106       22.9303732831        8.2090063623
 Hg        31.5618879597       28.8092187093       16.9679088454
 Hg        16.9363651520       19.8877098283       11.2366677442
 Cl        15.3960629317       18.7460344893       36.0746891823
 Hg        26.0228678433       13.9383808351       14.0115644013
 Hg        20.0872010364       22.8825091174       11.1599425997
 Hg        14.2689967481       14.1556758201       14.2114714418
 Cl        16.0832340211       24.4767374607        6.6301916450
 Hg        23.0341231771       16.9888721676       19.9674752072
 Hg        26.2120081168       16.9056386815       11.0487040832
 Hg        25.8915763100       16.9344893802       28.9485144077
 Hg        31.9456903377       22.9151861280       17.3654531570
 Cl        36.5534675348       20.6791450257       29.9787449395
 Hg        17.0858096174       10.8595647726       26.0896012616
 Hg        31.8485551144       13.9825910610       19.9777480216
 Hg        34.7373204769       17.0728699490       20.1287412179
 Hg        20.0714261575       19.9492781320       20.0368342023
 Hg        17.0570895062        8.2625849684       16.9397132528
 Hg        14.1353931634        7.5779265211       24.1980508176
 Hg        17.0453660768       17.1319010092       14.0568267665
 Hg        19.5165253467       14.5886064126        8.3068604747
 Hg        11.5327488514       14.2715158157       16.9545804603
 Hg        17.1503016355       17.0201069875       20.0646052319
 Hg        28.8162156083       22.9503884479       14.0585562741
 Cl        36.0894847001       24.1732646036       27.6749862414
 Hg        28.8196328088       28.9284282482       19.9877581941
 Hg        31.9774097263       17.0809040332       17.0375705878
 Hg        28.9813929740       19.9350142251       22.9567983831
 Hg        20.0679360664       13.9787026829       14.0734496713
 Hg        28.9700588056       20.0519159177       11.2255591487
 Hg        17.2099943585       22.7479389609        8.2835467965
 Cl        12.7813098570       10.4281352363       30.6980208498
 Hg        13.7839439120       29.5254458221       11.4034741271
 Cl        36.7244185625       13.2863581296       21.2692296594
 Hg        20.2185332292       35.1160888777       13.0164044764
 Hg        14.1793729732       17.0890107650       17.1732041877
 Hg        22.9396408864       28.9059939909       14.0088506448
 Hg        26.1615211442       31.6844789847       14.0471599690
 Hg        23.0180633977       22.9329712180       20.0066186197
 Cl         7.6171105691       28.1058283399       25.4070901984
 Hg        14.0708663971       26.1092709067       13.8458375408
 Hg        16.9283332171       28.9300815762       13.9598967064
 Hg        20.0812076731       31.5202247693       13.8958743646
 Hg        23.6265617536       34.7067528055       14.5069217327
 Hg         9.6139127398       19.9188393303       14.1909119834
 Hg        11.1489649010       23.2730492553       13.7865915422
 Hg        17.0612742838       25.9158951951       17.0313119527
 Hg        20.0267499687       28.9052924492       17.0352964231
 Hg        23.1133943668       31.7672100742       16.9697429159
 Hg        25.9251960596       34.6374170538       16.8425354958
 Hg        34.6971716838       23.0128912162       19.9299905808
 Cl         6.7112972774       22.0741140044       30.1667592442
 Hg        11.1593456517       20.0362703333       17.3400514033
 Hg        14.0948978768       22.9803080927       16.9275323547
 Hg        20.0712914868       28.7950159887       22.9124426314
 Hg        23.0621952150       31.8453466306       22.9333450260
 Hg        25.9249203930       34.6679418017       22.8376941621
 Hg        34.7030968536       22.8576556055       25.8456804997
 Hg         8.0229922134       17.1997095228       22.9481223829
 Hg        11.1597933754       20.0070328121       23.0393570072
 Hg        14.0977494054       22.9410171475       23.0045592940
 Hg        17.0990094349       25.8227691380       22.9440821390
 Hg        23.0111604164       28.8441042355       25.9707798764
 Hg        25.9020808001       31.8617817666       25.9600112483
 Hg        28.5591723727       34.5160756471       25.5361814995
 Hg        28.9834840996       22.9324364380       25.9370852414
 Hg        11.4243445453       11.3069010764       19.7329677296
 Hg         8.4680808446       14.2549022469       25.3993263485
 Hg        11.1925111819       16.9423433241       25.9472646230
 Hg        14.1092346773       19.9216150325       25.9786414775
 Hg        17.0639935390       22.9206362074       25.9886391535
 Hg        20.0729737556       25.8331867018       25.9408630068
 Hg        26.0700625654       28.9094928288       28.9522447644
 Hg        28.7762966109       31.2470671874       28.8331219487
 Hg        26.0256459284       16.9578992734       17.0396395116
 Hg        19.6094525911       11.0682540949       29.1321415679
 Hg        12.2129783879       13.8476393872       28.8630135784
 Hg        13.9061769447       16.8990921078       29.1135293912
 Hg        17.0543779862       19.9098354376       28.9545247856
 Hg        20.0672647849       22.9198056940       28.9238818907
 Hg        23.0634316861       25.8411451508       28.9269937746
 Hg        28.9117647806       28.9863369142       31.6674475237
 Cl        13.0161396409       22.1246964816       36.4166987891
 Hg        26.0613413041       14.0368723316       20.0404911138
 Hg        31.5279014089       26.0963852323       14.3547266845
 Hg        14.4374877129       12.4103965925       32.0524906806
 Hg        17.1842431307       16.9225517878       31.9222103599
 Hg        20.1596648986       19.9751295648       31.8307333820
 Hg        23.0622920419       22.9207362292       31.8251440539
 Hg        26.1020315162       26.0998922219       31.9493270793
 Hg        31.9178673155       25.9465140130       25.8408650953
 Hg        23.0997688874        8.2907850665       23.0589855400
 Hg        25.6715258727       11.0572763244       22.9339945703
 Hg        17.8825433621       14.4346209590       34.8161859009
 Hg        20.3072556473       17.1733387504       34.7170970691
 Hg        23.1820126443       19.9660882412       34.7138273344
 Hg        26.0901632465       22.8238742596       34.6939161650
 Hg        29.1576001860       25.8643904188       33.6811285062
 Hg         8.4199316040       30.8251736523       20.6554551398
 Cl        36.3766468243       27.1634694230       24.6297759783
 Hg         8.0381330044       28.7843083467       23.0571300517
 Hg        11.1032764187       31.3939761941       23.0443460401
 Hg        28.9937264914       16.9212468295       14.0470367264
 Hg        31.9703996490       19.6294500056       13.8732865710
 Hg        25.9560361679       19.9436771748       14.0717622922
 Hg        26.1256440503       11.3798316785       28.8193216798
 Hg        25.6543075860       20.0704444260        8.3154753368
 Hg        17.1734210426       14.0007130291       23.0663430468
 Hg        33.5329816494       23.0690164890       14.2681081892
 Hg        25.9490073278       26.0939728966        8.2795204904
 Hg        31.8290828241       16.8038859124       28.9104753929
 Hg        35.1234310819       25.8819898286       22.9263618497
 Hg        31.6745552564       31.8483893841       19.8320513499
 Cl        30.8204178411       12.2611052028       11.6661335859
 Hg        22.9192060711       16.9282345568        8.3057490139
 Hg        25.9520697576        7.8703002887       20.0521966934
 Hg        29.2603117785       11.0294898050       19.6567377700
 Hg        34.9981890559       14.0272327026       22.9408412789
 Hg        29.0622568534       19.9735039751       28.9146622409
 Hg        28.8829706709       14.1666926004       28.8050252889
 Hg        29.0517523486       14.1247126898       22.9609766453
 Hg        34.7270747412       16.9923466681       26.0786777057
 Hg        26.1147352775       23.0523728790       11.2493696957
 Hg        28.8457692997       22.9033877341       20.0728315167
 Hg        31.6928289260       23.3886372431       11.3139942466
 Cl        18.8097164779       21.2638513507       36.2325957351
 Hg        17.4880596168        8.7300654417       28.9610384377
 Hg        31.9449477535       25.6408874841       20.0126031207
 Hg        35.1625011465       19.9618625128       17.0873459955
 Hg        11.8585241473       28.9723172117       14.2575904303
 Hg        14.0391139383       31.5039854270       14.4422551419
 Hg        17.0329108433       33.5361976457       13.8826413437
 Hg        31.9501627508       19.9417164965       20.0673480753
 Hg        23.0132217314       19.9398153645       17.0331727098
 Hg         8.8940028260       25.6502687556       14.1127107808
 Hg        14.0599315625       28.8076447502       17.0325700028
 Hg        16.8529183522       31.8488482700       16.9006029320
 Hg        20.3225998561       34.5990741718       16.8837910050
 Hg        28.7789255536       11.4548677180       26.0523258548
 Hg         7.9597204100       22.9854342595       17.0749598237
 Hg        11.1547002586       25.8210425981       17.0141108695
 Hg        17.0877310364       28.8500374604       20.0653841883
 Hg        20.1074493031       31.8069172596       20.0024936507
 Hg        23.0728512458       34.7088388211       19.9239811609
 Hg         8.4209534883       19.9198196041       19.9229088088
 Hg        11.1608808909       22.9656124376       20.0644157641
 Hg        14.1072227775       25.8233658027       20.0412207833
 Hg        20.0667315603       31.7883933147       25.6340210960
 Hg        23.0722824908       35.0213586473       25.9471381378
 Hg        31.9505154968       22.9129191865       22.9746018079
 Hg         8.3588052776       20.0476215524       25.9353805574
 Hg        11.1981808400       22.9966588537       25.9882757628
 Hg        14.0744879196       25.9288587282       25.8204416143
 Hg        17.1259715501       28.7977007902       25.8073957527
 Hg        23.3420332348       31.8481301199       29.1449113313
 Hg        25.6779894198       34.1357365364       28.8873130663
 Hg        23.0497794890       16.9567824610       14.0650718071
 Hg        20.0687131105       22.9415135563       17.0291639733
 Hg        23.0575728769       25.9364350693       11.1661802973
 Hg         9.6468371447       16.7573274615       29.0665874341
 Hg        11.3022335092       20.0677079635       29.0573033428
 Hg        14.0782987682       22.8296696939       28.9687887288
 Hg        17.2063807937       25.9444731104       28.9647670641
 Hg        20.0550001037       28.6853284365       28.9480633803
 Cl        24.2523897913       15.0811745508        7.0859293686
 Hg        22.7944169775       12.8927734910        7.8653527235
 Hg        25.9664982569       13.8563121026        9.3173192475
 Cl        21.6901490210        6.5935475141       24.3887960505
 Hg        14.0072596703       19.9560800675       31.6944272840
 Hg        17.0754138660       22.9417616329       31.8063602415
 Hg        19.9483347617       25.9795732657       31.7551031760
 Hg        22.9468867296       28.8446564092       31.7695163554
 Hg        29.0043090906       18.7828705376        7.6775115744
 Hg        31.3723821805       20.9193765316        8.8910661937
 Hg        23.0856965853       14.1614499861       28.9588576684
 Hg        14.3457948234       16.9094100173       33.9461618517
 Hg        17.1783225233       20.0424984238       34.7209332792
 Hg        19.9708944940       22.9139941737       34.7124671221
 Hg        22.9312445671       25.5526379661       34.6882836756
 Hg        24.2142897867       28.9098590305       35.3234516422
 Hg        14.1051623778        8.1568558162       20.0607352257
 Hg        20.0768367667       19.8919070921        8.2845718077
 Cl        14.7841196748        7.4779015973       17.7538729649
 Hg        20.0376758900       25.9399599539       14.0623594324
 Hg        23.0310003334       25.9415147106       17.0168274795
 Hg        19.4761411263        8.1922360506       14.7859693199
 Hg        25.9428339929       25.9158382225       20.0442582087
 Hg        16.9606355991       11.1896549179       19.9450312863
 Cl        12.0996895179       31.3378863525       12.5000029810
 Hg        28.9536139966       25.9523735486       22.9487223680
 Hg        11.5272787555       16.9006639157       14.2391191938
 Hg        20.0646728348        8.1668019962       19.9111316289
 Hg        29.1008799188       14.1044467013       11.3247866944
 Cl        24.5768204988        6.6128693775       21.6786530357
 Hg        25.9332041602       14.0509181778       25.8636826883
 Hg        25.9442884930       22.9224130185       17.0437893829
 Cl        21.4824750629       36.2776221623       24.4578945017
 Hg        29.0128646994       16.9151589646       25.7974551019
 Hg        20.2263766301        7.7416438973       26.0717333127
 Hg        19.9398982281       11.1459475657       17.0554601422
 Hg        20.0240444532       16.9921532442       23.0579551092
 Cl        21.4003518999       24.1366557994        6.7359459290
 Hg        20.1427878606       25.8042520280        8.1935564685
 Hg        34.8132498511       19.4165881050       28.2101212067
 Hg        26.0553883247       28.9248020875       17.1337348213
 Hg        23.2442675456       11.3651340381       31.8523275135
 Hg        22.6908690464        7.7217691170       13.0042298648
 Cl        18.4664430223        6.6660892566       21.2355314471
 Hg        29.0299016299       11.9243473596       14.0246148105
 Hg        31.3732164662       14.2409681651       14.1711914626
 Hg        34.2587915160       17.3117015073       14.1492467917
 Hg        34.8520563116       19.9190087964       23.0621206377
 Cl        19.0478559379       27.4999077065        6.6185385037
 Hg        28.9789154478       16.8592674843       31.7078721004
 Cl         6.7355810566       18.9271653850       27.6148874814
 Hg        14.2443965007       35.2834655648       19.1207393744
 Hg        28.9197658985       25.8350295245       17.1510811475
 Hg        28.9730914004       19.9916438433       17.0295665510
 Hg        22.9156725407       13.9069907659       11.4117936324
 Hg        31.9480678609       29.1780165426       23.3342067897
 Hg        23.0745867485       11.0481568312       25.6618552893
 Hg         8.4737206313       28.4272505298       17.4412795420
 Hg        14.0590914773       31.9315816646       19.6528822491
 Hg        18.1510089386       35.1026690525       19.9152900102
 Hg        23.0343712633       19.9660809189       22.9910973395
 Hg        23.0250955770       14.0174659096       17.0538048129
 Hg        28.8280451358        9.4902103345       23.0093458391
 Hg        31.9229310546       11.2023691971       23.2484256115
 Hg        16.9270115168       14.0307007517       11.2863341833
 Hg         8.3530458931       25.8130074861       20.1518346979
 Hg        11.1947368635       28.9103348137       19.9402780085
 Hg        17.2220412077       31.9399465640       22.9485528177
 Hg        20.0747446555       34.5375491683       23.2062560239
 Cl        24.3886606164       21.7025922287       36.1646257758
 Hg        14.0560841779       22.9515270308       11.2012403490
 Hg         8.2733952520       22.9534733351       23.0788143810
 Hg        11.2250888454       26.0802324399       23.1006170415
 Hg        14.0786371699       28.7301278322       23.0031480754
 Hg        19.9280847133       33.4055780988       28.7055441856
 Hg        25.8585760449        8.8717236626       14.3037053249
 Cl        16.0990992675        6.3232429404       24.3456728294
 Hg        34.6244496427       14.3831996322       17.5019200825
 Hg        17.1141969464       25.8678980996       11.0804877213
 Hg         8.2130143474       23.4010940800       28.4402406110
 Hg        11.3010180598       25.9655527841       28.9400742357
 Hg        14.1861384637       28.6491987840       28.8184772899
 Hg        16.8950399378       31.3596422288       28.5854082523
 Cl         6.8432831886       21.2543786985       24.2834463948
 Hg        31.7556085999       22.8604145254       28.9724789820
 Hg        23.0904046715        9.4978791729       28.8322885195
 Hg         7.7262441302       19.9190445686       29.7526126652
 Cl        28.2229184991       35.4092115955       17.6410934484
 Hg        14.1589075814       25.9936698720       31.7397705135
 Cl        20.7235595898        6.4594626251       13.0022068216
 Hg        19.5757925369       31.5976779723       31.6763698271
 Hg        17.4400390562        8.2712822455       22.8747302089
 Hg        12.0145540784       22.2080576914        8.5865823520
 Hg        13.1467042836       20.0836759472       35.2506274782
 Hg        14.7575646373       23.4191737528       34.7301652347
 Hg        16.9278132644       25.8343033043       34.7149467721
 Hg        20.0756189373       28.7976108191       34.7836260192
 Hg        14.4790764701       25.2344813304        8.3071227171
 Hg        20.0519950724       19.9676506191       14.0774251418
 Hg         8.3406947290       25.7889323819       26.1947178595
 Hg        14.2687386945       13.9853604268       20.0544952317
 Hg        28.8430406039        8.5785744326       17.4452673137
 Hg        34.4462031832       11.9235757283       20.5880486186
 Hg        20.0563710409       28.9765786184       11.1786145230
 Cl        25.4328260856       14.7459085375       35.4179300727
 Hg        14.0798291821       31.4441375904       26.0482217042
 Hg        20.0513243867       11.0386293091       23.0076044620
 Hg        14.1884568970       19.9282112374        8.0476234272
 Hg        25.9833276752       22.9360395349       23.0275492381
 Hg        33.5089560964       28.8055107828       19.9817523371
 Hg        23.0325118588       22.9362070118       14.0697183738
 Hg        28.8020426237       28.8028630481       14.1685899581
 Hg        16.8908997147       11.1927926173       14.1050455733
 Hg        19.9763713006       16.9744750893       11.1982685368
 Hg        11.3945190222       19.6686611015       11.1429619854
 Hg        17.0925195162       22.9406021732       14.0828414087
 Hg        17.1314792084       19.9896225244       17.0562657916
 Hg        20.0368629229       14.0128330390       20.0509150637
 Hg        20.0625292988       13.9324326561       26.0830843539
 Hg        23.0232495109       17.0288863962       25.9499800234
 Hg        26.0549100541       19.9520754310       25.9689355774
 Hg        28.9773200051       17.0410719532       19.9978805602
 Hg        17.1741278601       16.8261168137        8.3212160448
 Hg        16.7004070743       28.9760615610        9.1566486800
 Hg        26.0535027572       25.7886307776       14.0265149993
 Hg        22.9878505857       11.0481054333       19.9929815429
 Hg        31.8296898533       16.8124662803       23.0770027523
 Hg        26.1071094801       28.8356187822       11.2342711074
 Cl        24.2393069766        6.9084317640       15.2860132720
 Hg        20.0679222198       29.6657113117        7.6328049133
 Hg        11.7169247241        8.8305727993       22.1308935978
 Hg        22.0855450118       31.2659835943       34.0837723317
 Hg        20.7914937622       11.9161812896       34.4473669152
 Cl        36.3717433262       24.4995173973       21.2894874561
  S        30.6291959976       15.8063442179       12.5281085608
 Cl        16.3985437581       24.1862117184       36.6244571548
 Cl        30.7493856725       30.7147668848       31.3161583154
  S        33.9090554467       30.4264998031       23.9128643620
  S        30.4776711397       21.5246311241       12.6328569050
  S        12.5327587283       33.7930401965       19.3886285778
  S        18.5823138715       24.4334844535       15.5549630496
  S        27.3964532722       12.5985611673       24.3347787993
  S        21.5582463334       21.4437018000       15.5443762599
  S         9.9917153627       18.1822053503       12.6453311629
  S        15.6152339957       18.4482376495       24.5127205280
  S        30.4930395912       15.5583565571       18.5055617212
  S        24.4303545453       12.6340304296       21.4320936932
  S        30.3850526532       24.3664121325       21.5371425520
  S        18.5935096436       21.4645586032       24.5020694569
  S        19.2647777670        9.0972154814       30.4347353785
  S        18.7361202592        9.4884323654       24.5503255154
  S        15.5816062916       21.3885706225        9.6330219465
  S        18.5964889625       18.5088446892       21.5554018738
  S        21.5152635075       12.5389711164       18.5214994883
  S        24.5614811569       30.2728618217       15.5142150228
  S        12.4855757536       32.8514476542       24.7345945347
  S        30.4419370913       12.5181260346       21.5003821665
  S        21.5853319026       24.3894142256       24.4624649737
  S        18.6805915018       30.2337850515       27.3100727069
  S        14.4398183909       25.8084936706       34.1423428044
  S        24.5215203986       27.3932125938       18.5198406567
  S        12.5363379889        9.2991896232       24.2940060184
  S        30.4197299000       18.4035647934       27.4037358456
  S        30.4674166878       21.4348512351       24.4561069970
  S        15.7087312476       27.3140160865       27.3448719454
  S         9.9400880644       12.7198874304       18.2633647260
 Cl         6.7575933026       24.4422210467       15.5548302106
  S        27.4546525672       21.4420204010        9.6195255799
  S        24.5552984282        9.5673669950       18.5722582903
  S        18.6222784856       21.4592538473       18.5386948260
  S        18.6185023075       30.3521555354       21.4764682003
  S        18.5970418130       15.4916560092       24.5571409624
  S        12.6394792442       21.3881899474       12.6296165439
  S        30.4911294025       18.4347667697       21.5288882671
  S        15.6629606550       15.6157558966       15.6823411589
  S        27.4870116997       15.4747481822       15.5353446549
  S        18.4924376924        9.6119948190       18.5352832310
  S        27.6264592754       30.4210673191       18.3822864523
  S        27.5233316787       27.3979690873       27.4557172094
  S        12.7120521837       18.5624447925       15.6786029371
  S        30.6263077003       18.7354318313        9.3816007765
  S        15.4350995454       12.6099656205       12.6783187926
  S        18.5665595335       27.4095770811       18.5173792641
  S        21.5243001427       12.6103956491       24.4122275145
  S        24.5352628354       15.4844413107       18.5209566606
  S        21.5799202518       30.3773351769       18.4946650257
  S        24.6266062820       24.4211641393       33.3098761728
  S        21.5444061217        9.5487865419       21.4867197622
  S        27.5127833945       24.4356724541       24.4677701280
  S        15.6232726788       27.3402996189       21.4889855677
  S        15.7136851605       12.4302036602       24.5111635313
  S        21.5938790292       12.5625107216       30.3493967240
  S        24.5680097594       33.2751010087       18.4905511479
  S        27.5085505388       18.4886710361       12.5727100357
  S        27.6262792034       27.5999899065       33.3671212748
  S        12.5708152755       18.5187330508       27.4561945219
  S         9.5789685400       18.6324012908       30.5180582745
  S        24.5114434556       24.3941941089       21.5156395760
 Cl         6.8026559650       24.4395814791       21.6280772854
  S        23.1395856958       11.4764278690       34.2614355609
  S        27.2066573758       30.5237820391       30.4761616554
  S        15.5951906791       27.3967514845       15.5511784722
  S         9.6820531158       18.4651766935       24.4720069000
  S        33.4542219066       15.5052213533       15.5570261245
  S        24.6882734270       15.3635697674       30.4600640138
  S        24.5985764269       24.4520724031        9.6831340474
  S        15.9153489245       15.2766001556       33.3718745684
  S        27.4287336574       21.4003311851       21.5415226382
  S        24.4700448403       12.5865166598       27.3499983844
  S        12.6505508605       18.5263608579       33.5599114871
  S        27.6098960831       21.3427377872       33.3209827714
  S        18.5578271252       27.4127292382       12.5616431106
  S        24.5356913254       18.4873200990       27.4235857357
  S        18.5548665442       21.4217196867       12.5873342164
  S         9.4915510658       30.3330848963       18.5868116158
  S        15.7372740641       33.3449676993       21.4478496635
  S        21.5605302803       15.4843864331       15.5486293219
  S        30.3871570388       24.3345912661       15.6736506072
  S         9.6541496331       24.3566231693       18.5225056089
  S        21.5994572358       21.4290263129        9.6479841611
  S        19.7368334092       31.3801634453       34.0952390943
  S        15.5904241149       21.4975689478       33.3755797506
  S        30.3826023849        9.8878563716       24.7299789163
  S        18.5699068820       30.4321090957       15.5754435560
  S        24.5274184949       18.3835882364        9.6956885625
  S         9.6779738826       21.4468828681       21.5152310766
 Cl        13.3012788146        6.3822238247       21.7784642640
  S        12.6627020384       12.5913992295       21.5396470233
  S        12.5619403235       21.5954831267       30.5577022357
  S         9.2608839134       23.9999737274       12.5008137635
  S        33.4400546506       24.4749274861       24.3957792316
  S        30.5285892325       30.5701870135       27.2987537115
  S        12.7861452062       15.4524215029       24.5282284270
  S        30.7304688841       24.1415720799       33.3861964564