    2839
 i =       74, E =   -112197.5197291162
 Ga        40.3186552688       24.0139602732       45.5505583830
 Ga        45.7221091639       45.7217835802       29.3391525289
  P        41.8364171866       39.2010557915       11.9038835913
 Ga        40.3206529410       40.3198151965       34.9112524009
 Ga        45.7142396895       24.1036727144       18.6050583027
  P        44.2380425226       22.7623337731       30.8785159168
  P        44.2106162072       22.7370473218       36.2560993586
 Ga        48.0942927940       21.3224244204       34.9906666583
 Ga        45.6347712685       24.0966234963       24.0870869412
  P        44.2751253906       22.6659264002       41.6658307792
  P        44.5010598151       22.4597617648       47.0564055368
 Cl        44.1536316286       25.8321441123       11.8275616952
 Ga        48.0176617346       21.1596225570       40.4728816317
  P        44.3825737824       25.4959750351       17.2707593500
  P        44.3120889278       25.4655765290       22.7411226486
  P        44.2538427868       25.4789638355       28.1638933930
  P        44.2195608948       25.4470127511       33.5495976010
 Ga        40.3140954969       40.3131434769       29.4979046880
 Ga        43.0127337948       21.3880549171       18.6048276496
  P        44.2503133612       25.3953292028       38.9585982778
  P        44.3584643664       25.3549265017       44.3568894218
 Cl        44.1797917903       25.1798174647       49.5058703707
 Cl        43.7954390571       28.7620347238        8.8733705171
 Ga        43.1028969342       35.1492149863       10.8985638484
  P        44.3721479688       28.2538819690       14.5931126826
  P        44.3116985385       28.1699569442       20.0321558201
  P        44.2437772280       28.1862853651       25.4340580984
  P        44.2302019471       28.1407477648       30.8458591183
  P        44.2570629618       28.1053063902       36.2427910368
  P        46.9105299413       36.1786501030       30.7315120276
 Ga        45.5518668762       24.1613934582       29.5714719765
  P        44.3290429020       28.1032417427       41.6454593518
  P        44.3684243843       27.9653385704       47.0598141351
  P        44.3495884531       31.0293577806       11.9082072769
  P        44.3259560709       30.8948488382       17.3401711523
  P        44.2493224295       30.8981153455       22.7292644004
 Ga        48.2814522091       24.0942692987       21.3102395163
  P        41.6489992669       39.0039052433       17.3140674534
  P        44.2346254498       30.8614391776       28.1290116925
  P        44.2460238380       30.8209248041       33.5308049694
  P        44.3247250233       30.8202116087       38.9418920231
  P        44.3905032529       30.7528271053       44.3646649259
 Cl        43.8092195568       30.2362252983       50.0685962068
 Ga        48.1838603273       24.1771000996       26.8702476662
 Ga        40.3145075851       40.3146921656       40.3140372249
 Cl        44.1386690512       33.8166003376        9.4473147120
  P        44.3582414013       33.6518767857       14.6163207529
  P        44.2633339558       33.5924360646       20.0173484601
  P        44.2510490545       33.5550883999       25.3823809244
  P        44.2466419133       33.5257212743       30.8116393852
 Ga        48.0998753381       24.0979006453       32.2777853778
  P        44.5140954751       47.0703076645       22.3956007298
  P        44.3268095660       33.5255346396       36.2291533543
  P        44.3849984373       33.5061106505       41.6606505625
  P        38.9521883077       30.8584685219       17.3657252049
  P        44.5029271114       36.5472737949       11.8814493632
  P        44.2717570197       36.3303849916       17.3196915982
  P        47.0721047972       36.1976279541       36.1743990182
  P        44.3817143519       47.0667185665       27.9329353934
  P        44.2782189015       36.2809148537       22.6795028021
  P        44.2700193082       36.2516812062       28.0752829520
  P        44.3284570980       36.2397803136       33.5111723167
  P        44.3816578682       36.2272484452       38.9382817361
 Cl        44.2853337351       35.9896347651       44.3039344744
 Ga        48.2782877201       21.3844814344       24.0233773849
 Cl        44.1463856180       47.1289125719       33.2089694298
 Ga        42.8807463883       29.5054077872       26.7954440733
 Cl        44.2250307283       38.9269065795       14.7005554999
  P        44.3126250683       39.0114583319       19.9458885537
  P        44.2816291326       38.9741897443       25.3337329207
  P        44.3183513893       38.9463445530       30.7810026255
  P        41.6377543884       38.9711411254       22.6805934584
  P        44.3882412368       38.9450684274       36.2137988907
 Cl        44.3257770919       38.7357142107       41.5194640554
 Ga        40.3156629169       26.8695027272       10.6503623338
  P        44.4628755401       41.7966228137       17.1515860355
  P        44.3273358260       41.6847201207       22.6234123797
  P        41.6314806627       38.9668797801       28.1085921279
  P        44.3221479571       41.6457313770       28.0587479617
  P        44.3791470094       41.6622597859       33.4879801460
 Cl        44.3266585444       41.4921672500       38.7629979958
  P        41.6607053892       38.9519588465       33.5363368526
  P        38.9199399673       30.9731923753       12.0488959328
 Ga        40.3223123939       42.9506489800       21.3048848015
 Cl        44.2683415251       44.2640641976       19.9863670708
  P        44.3604394565       44.3576229342       25.3149343079
 Ga        45.4964146355       24.0942105993       34.9233438412
 Cl        44.1970377130       49.5002380211       25.1196275751
  P        44.3802956802       44.3710159783       30.7362043046
  P        38.9126923491       30.8579194089       22.7478341418
 Ga        45.5500211342       24.0108212692       40.3146846559
 Ga        48.2670902054       45.8107653068       26.4769397955
 Ga        48.1876928668       40.3092426196       26.6217160736
 Ga        45.7292207362       23.9281550493       45.7280758120
 Ga        43.0116833153       34.9241378246       15.9795425105
 Ga        42.9277892202       34.9179603112       21.3795344740
  P        44.3532247842       20.0542997279       22.7169812490
  P        41.6446531103       17.3552865826       33.5763185788
  P        38.9642975012       33.5992321624       14.7284170521
  P        44.3191637080       20.0614625424       28.1711577606
  P        41.6704549882       17.3300727075       39.0185527669
  P        38.9377588417       33.5632092098       20.0337077107
 Cl         9.0449728920       12.3977147288       27.5390177323
  P        44.2378669791       20.0346973278       33.6101293576
  P        41.8037861087       17.2069172851       44.4965100597
  P        38.9074916266       33.5487636711       25.4368989938
 Cl         9.4791881913       14.8185373092       25.1845032544
 Cl         8.9350298536       15.1322705280       30.2948545220
 Ga        40.3193620130       26.7978284167       15.9760242102
  P        38.9133407019       33.5480088837       30.8422501104
 Cl         9.5452675430       17.3833884848       22.6227111394
 Cl         9.4562212380       17.5098963011       27.9265381130
 Cl         8.8810564063       17.9316490282       32.9305140488
 Cl        41.4996645492       20.2527156363       14.5994541395
  P        38.9535053847       33.5494025658       36.2551432314
 Cl         9.5563605050       19.9829460749       19.9611943287
 Cl         9.4061071852       20.0131924953       25.4440489653
 Cl         9.4485494880       20.2924035360       30.5909637097
 Cl         8.8862623122       20.6216011132       35.6993914480
  P        38.9496377049       33.5386495102       41.6600675248
 Cl         9.5446269373       22.6300565929       17.4039742056
 Cl         9.4175567459       22.8371027091       22.5822503854
 Cl         9.5532451496       22.8132661701       28.0756308862
 Cl         9.4446946391       22.9707225979       33.3425839281
 Cl         8.8589959060       23.3786661701       38.3734195738
  P        38.9108080738       33.4841337649       47.0570938950
 Cl         9.4858904543       25.1617885968       14.8061412279
 Cl         9.5130396590       25.3538043051       20.0510015773
 Cl         9.4483844534       25.3221285667       25.5458124096
 Cl         9.4102070643       25.4415127748       30.8590790528
 Cl         9.4443117923       25.7267029393       36.0010412785
 Cl         8.8891420454       26.0857665138       41.1046315500
 Cl         9.0393521347       27.4671936722       12.3460207600
 Cl         9.4552280755       27.8609565197       17.5354372303
 Cl         9.4082263285       28.1334101231       22.7011381721
 Cl         9.4458540404       28.2534980338       28.0154445856
 Cl         9.5356934270       28.2419211062       33.4793923074
 Cl         9.4446827689       28.4229326120       38.7450394621
 Cl         8.8829454640       28.7834185092       43.8227139655
 Cl         8.8980511436       30.1992490616       15.1587091131
 Cl         9.4490394269       30.5987116346       20.2049799481
 Cl         9.5615467337       30.7767026651       25.4921455786
 Cl         9.4122114732       30.7814491321       30.9474553454
 Cl         9.3905044685       30.8987866719       36.2762362834
 Cl         9.4393197179       31.1506789927       41.4356556218
 Cl         9.0287364777       31.4803186097       46.5846561212
 Cl         8.9021336229       32.9597564672       17.8546301058
 Cl         9.4605040005       33.3025924467       22.9546096133
 Cl         9.3960856556       33.5851898060       28.1416342367
 Cl         9.4084475191       33.7267805112       33.4969920276
 Cl         9.5278785197       33.6986389744       38.8882188718
 Cl         9.4735852306       33.8227219538       44.1558815567
 Ga        43.0917005346       29.5806765674       10.6554274785
 Cl         8.9269296617       35.6783699105       20.5929162788
 Cl         9.4703853479       36.0541008552       25.6539547983
 Cl         9.5203181538       36.2193908865       30.9632280723
 Cl         9.5308281259       36.3066459864       36.2795520908
 Cl         9.5135290054       36.3673979231       41.5824773991
  P        41.6687401000       14.7232497503       36.3284722108
 Cl         8.9458514801       38.4090847741       23.3133050498
 Cl         9.4450365508       38.7027082289       28.4177283670
 Cl         9.5047991008       38.8906709430       33.6535443944
 Cl         9.5358128192       39.0028153064       38.9844966385
 Cl        41.4922376053       49.5353949685       27.8702300924
  P        41.6463447696       25.4218862370       41.6437334946
 Cl         8.8611434052       41.0679397564       26.0631850714
 Cl         9.4275573302       41.4308828895       31.1135086607
 Cl         9.5387241932       41.5735499062       36.3645689808
  P        41.8020644012       14.5092234979       41.8020930810
  P        41.6621023599       25.2921774771       46.9317845701
 Cl         8.8889831782       43.8271764464       28.7613728048
 Cl         9.4722241247       44.1516431537       33.8191040719
 Ga        45.8788788039       42.9296896328       21.3146150981
  P        41.6177750092       28.2877850560       11.9186973942
  P        41.6505452565       28.1756733395       17.3211644060
 Cl         9.0267530879       46.5799527145       31.4786079389
 Ga        45.6480527692       43.0223455133       26.6979078996
  P        41.6112165853       28.1600179659       22.7439632158
  P        41.5626348763       28.1509510105       28.1472635480
 Cl        46.6318256124       49.9598724572       27.4648596764
  P        41.5624943158       28.1430784219       33.5502207262
  P        41.6180013099       28.1358367839       38.9474270787
 Ga        45.7224575868       26.8679075222       15.9115857944
 Ga        45.6371402436       26.7990244157       21.3693900433
 Cl        49.4296653566       39.0018735038       19.9042205901
 Cl        49.5942131872       38.9807205835       25.4282949498
 Cl        49.5412019397       38.6910635451       30.5424586329
 Ga        43.0059635468       21.3833590707       24.0220979597
  P        44.2963350014       19.9997993959       38.9971761484
  P        41.6578359549       20.0543787475       19.9835537206
  P        39.0018097374       36.3507873811       12.0498089758
 Ga        48.0231954747       24.0061732392       37.6212912052
 Cl        44.2624167261       20.0568390004       44.2658334351
  P        41.6619268653       20.0415217763       25.4130180731
  P        38.9693954603       36.2787363406       17.3533788846
 Ga        10.7316142257       13.1875826825       26.5505315543
 Ga        48.0858824078       23.8419482604       43.1051814677
 Cl        50.1118751299       32.9311606785       41.0967864278
  P        41.6120379674       20.0522078533       30.8588312760
  P        38.9351934098       36.2608636202       22.7323948864
 Ga        10.9068001278       15.8948395912       23.8459664090
 Ga        10.6576596658       15.9128987040       29.4147389942
 Ga        40.3101188085       26.7897861951       21.3712048026
  P        41.5982976496       20.0336102092       36.2864475668
  P        38.9379621694       36.2616283281       28.1371457083
 Ga        10.9935084394       18.5231185630       21.1482111349
 Ga        10.8105346836       18.6940386419       26.6351517244
 Ga        10.6557617259       18.6822481980       32.1295391213
 Cl        47.1907568006       35.9306618708       41.4189267045
 Ga        40.3148731066       42.9474927065       26.7223158176
  P        38.9545953787       36.2536075310       33.5493504712
 Ga        10.9779365062       21.1489086395       18.5219320532
 Zn        10.7395010982       21.3246960799       23.9518801231
 Ga        10.8863460263       21.4561757058       29.4039477816
 Ga        10.6536894866       21.3863948119       34.8995171121
 Ga        48.3431787429       26.8646944045       18.6079987014
  P        38.9510147282       36.2436556879       38.9545545115
 Ga        10.9113997005       23.8398693843       15.8911449713
 Ga        10.8953781729       23.9978223998       21.3360508602
 Ga        10.9680488665       24.0925798754       26.7071229726
 Ga        10.8120065160       24.1772162043       32.1162004931
 Ga        10.6573154952       24.1039739462       37.6123898140
 Ga        48.1143505685       26.8770538584       24.1092931350
 Cl        49.4501833549       36.3604043254       17.3391559934
 Ga        10.7378702851       26.4827324582       13.1124577381
 Ga        10.8885137667       26.6368742539       18.6777014466
 Zn        10.7409088272       26.7124403509       24.0862538664
 Zn        10.7411459909       26.8037907802       29.4264571906
 Ga        10.8818680588       26.8844221090       34.8270219491
 Ga        10.6528646367       26.8714723392       40.3147622348
 Zn        48.2029527085       26.8044739613       29.5049100741
 Cl        43.8473583722       50.0691075467       30.2434110293
 Ga        10.6542827359       29.3466215779       15.8992105400
 Ga        10.8096581185       29.3487402080       21.4027143729
 Ga        10.9614210864       29.4319117453       26.8040841405
 Ga        10.9077596867       29.5727049039       32.1309761775
 Ga        10.8100521614       29.6485971146       37.5292550657
 Ga        10.6590455934       29.5828429554       43.0864756740
 Zn        48.2554083358       26.7218693093       34.9014387509
  P        41.6599781451       38.9428157848       38.9433240624
 Ga        10.6571825290       32.1255757707       18.6115262323
 Ga        10.8827144891       32.1187764732       24.1072228245
 Zn        10.7417071119       32.1964858084       29.5058625260
 Zn        10.7382971921       32.2723745117       34.8982082855
 Ga        10.8773111062       32.3571638028       40.3087752917
 Ga        10.7320655977       32.4485527949       45.8130264862
 Ga        48.1084062568       21.4647098634       29.5800828544
 Cl        41.4974133289       38.7383084136       44.3444170237
 Ga        10.7233674460       34.9045011664       21.3131187639
 Ga        10.8144444722       34.8199777210       26.8709578473
 Ga        10.8943736404       34.8982941258       32.2765599926
 Ga        10.9650546917       34.9958795667       37.6326158453
 Ga        10.9063082019       35.1553364620       43.1079636852
 Ga        40.3170436834       10.6534483075       26.8559920453
 Ga        40.3220274809       43.0108870933       32.1943367549
 Ga        10.7154190555       37.6091063864       24.0782051657
 Ga        10.8816091813       37.5340870212       29.5778996497
 Ga        10.8958591327       37.6811115689       34.9937939488
 Ga        10.9182419978       37.8454606668       40.4785355871
 Ga        40.3099158378       10.8888494004       32.2983038731
 Ga        42.9276670258       34.9074449036       26.7351894525
 Ga        45.8724182641       48.2610766829       26.4766895605
 Ga        10.6591928748       40.3198610176       26.8003863517
 Ga        10.8852368177       40.3157113339       32.2964582215
 Ga        10.9701407169       40.4779915306       37.8411842883
 Ga        40.4653756518       10.9833038610       37.8413245968
  P        41.6516685731       28.1044995112       44.3258298425
 Ga        40.3188538188       43.0126425432       37.6101135489
 Ga        10.6583399309       43.0884875070       29.5749413422
 Ga        10.9062119911       43.1041818840       35.1507040333
  P        46.9344450590       33.7118094686       17.3084063340
 Cl        41.4249056259       27.8715988768       49.5375435722
 Ga        42.9436389330       34.9085259745       32.1961385109
  P        46.9174272176       33.5289548667       28.0661935213
 Ga        10.7313226258       45.8119355792       32.4470355917
 Ga        45.7263459181       45.7242588374       23.8561360996
 Cl        41.4124002818       31.1384192527        9.3893810801
  P        41.6543311003       30.9077352656       14.6670054009
 Ga        45.8160196738       10.7398833762       32.4447884604
 Ga        48.2895290851       18.6794192783       26.7941203731
  P        41.6128205351       30.8640143545       20.0465479036
  P        41.5639268408       30.8528517887       25.4442230100
 Ga        45.5522319766       26.8703385012       26.8091253130
 Ga        45.5537755604       26.7939346845       32.2049716272
 Ga        42.8763170437       29.4950847964       32.1969936434
 Ga        48.3434723363       40.3211272123       32.1132022008
 Ga        45.5541813552       26.7162493487       37.5952131844
 Ga        40.2414147738       26.7895772242       26.7899764904
  P        41.6720787829       19.9806437386       41.6674933943
  P        38.9374016718       36.2308644721       44.3792468155
 Cl        12.3913456256        9.0180555617       27.5240861686
 Cl        44.2816749266       23.0043961367       14.6293846253
  P        41.8442773457       19.7994687595       47.0312772854
 Cl        38.3930347847       35.6779439381       50.1179257438
  P        11.8469836830       11.8705493899       25.0911013221
 Cl        17.4755556221       41.5441074347       17.4833524603
 Cl        41.3986796645       23.0992617564       11.7998703097
 Cl        38.9780257567       38.9654561939        9.5141889059
  P        11.9264823990       14.4810437459       22.4682395041
  P        11.9364577914       14.6472096887       27.9809028938
 Cl        11.8683728504       14.8316623685       33.2026037411
  P        41.6560307367       22.7714945914       17.2723276793
  P        39.0157501723       39.0240361432       14.6689475576
  P        11.9398602371       17.1015673933       19.7437664043
  P        12.0474852721       17.3409868837       25.2997556018
  P        11.9350241501       17.3721741164       30.7239803101
 Cl        11.8189375560       17.5998595293       35.9652034644
  P        38.9604945680       38.9424999748       20.0274178058
  P        11.9682977526       19.7424245428       17.1436974251
  P        12.0149114365       19.9939244651       22.6035152486
  P        12.0617055721       20.0688219962       28.0296021109
  P        11.9295847381       20.0891532380       33.4737397786
 Cl        11.7959030933       20.3524579839       38.6843799368
  P        38.9636236295       38.9450105359       25.4176508994
  P        11.9148856500       22.4394114894       14.4902182521
  P        12.0670467761       22.6354308990       19.9663016873
  P        12.0596390112       22.6975803444       25.3335148625
  P        12.0858657170       22.8116316376       30.7901846447
  P        11.9357781249       22.8117003270       36.1945342716
 Cl        11.8002304319       23.1164374122       41.4026199339
  P        11.8858374544       25.0335101900       11.8267555131
  P        12.0796669127       25.2957453021       17.3123484573
  P        12.0453687233       25.3973763385       22.7108285749
  P        12.0746672601       25.4638387500       28.1179806607
  P        12.0920676693       25.5171156735       33.4714824255
  P        11.9290351648       25.5599685417       38.8955658881
 Cl        11.8484374137       25.8415657363       44.1820397001
 Cl        12.4064166349       27.4593037197        8.9765640838
  P        11.9225258100       27.9438410062       14.5985363213
  P        12.0821030701       28.0379095123       20.0468665849
  P        12.0744068547       28.0734168657       25.4147638072
  P        12.0471618424       28.1646807668       30.7887476855
  P        12.0765007389       28.2704759283       36.1951603123
  P        11.9300286078       28.2843803591       41.6270533737
 Cl        11.9907871633       28.5852460484       47.0150071306
 Cl        11.9999483570       30.4551047745       11.9987303361
  P        11.9329388208       30.7094313902       17.3122822834
  P        12.0738874446       30.7306739043       22.7561314871
  P        12.0668826864       30.8453754413       28.1780166264
  P        12.0436149436       30.9217973172       33.5451478120
  P        12.0613084895       30.9699826562       38.9155235763
  P        11.9325874339       31.0238296237       44.3481786554
 Cl        12.3822074303       31.4874880828       49.9800514562
 Cl        11.8610184847       33.2092126522       14.7851728867
  P        11.9551579769       33.4292509228       20.0451287968
  P        12.0822754624       33.4859642088       25.4983299561
  P        12.0451935329       33.5348492568       30.8910319934
  P        12.0541101290       33.5949954341       36.2553712119
  P        12.0623112855       33.7135905064       41.6629571890
  P        11.8437796904       33.9123519818       47.1257484151
 Cl        11.8019214631       35.9222448884       17.5768030705
  P        11.9813135617       36.1959385786       22.7655341632
  P        12.0910661839       36.1723865242       28.2166772679
  P        12.0866310862       36.2811816088       33.6340688722
  P        12.0568686627       36.3822752811       39.0269355993
  P        11.9188519832       36.5403146497       44.5136903575
 Ga        40.3110502530       13.2830127769       24.0864452366
 Cl        11.8472668808       38.6887345983       20.3071391547
  P        11.9639127735       38.9121480220       25.5152879608
  P        12.0805288795       38.9148860873       30.9380786091
  P        12.0682827463       39.0216098235       36.3680718809
  P        11.9411419918       39.2376166046       41.8486024771
 Ga        40.3194899022       13.3561970500       29.5046645224
 Cl        11.8450284703       41.4134184292       23.0814566608
  P        11.9136146478       41.6242064293       28.2534656248
  P        12.0538756706       41.6533986918       33.6943079284
  P        11.9539363005       41.8577727878       39.2403655590
 Ga        40.3138562068       13.4376690395       34.9894455484
  P        41.5637623561       30.8462202865       30.8439876183
 Cl        11.8515813294       44.1789981163       25.8247100904
  P        11.9306701367       44.3454722152       31.0182799740
  P        11.9206718425       44.5097361424       36.5337099336
 Ga        40.3968401011       13.3576782274       40.4037178006
  P        41.6147022835       30.8376464073       36.2465806421
 Cl        11.9836732807       47.0085431417       28.5828918416
  P        11.8443721844       47.1239296697       33.9094104914
 Ga        40.4011682011       40.4037537917       13.2899518821
  P        41.6585907767       30.8332647462       41.6595798143
  P        41.6455758511       30.7409467785       47.0357067581
 Cl        12.3783597077       49.9791564399       31.4888511067
 Cl        44.2692419479       14.7507799524       38.9502671304
  P        41.6489303552       33.7000441156       12.0397270198
  P        41.6435768955       33.5797713579       17.3450082547
  P        41.7781458548       41.7940533408       14.4731488742
 Cl        50.1120851246       38.3730384869       35.6385107324
  P        41.6813765122       41.6612292979       19.9690753973
  P        46.9593588306       33.6239474908       22.6761313487
 Cl        49.4663410887       41.6006232642       22.5787334343
  P        44.3615668630       22.7803178725       19.9807879063
  P        41.6563860247       22.7575726332       22.6940910990
  P        38.9570024093       38.9556780179       30.8431921066
 Ga        13.1253278023       10.7361213537       26.5535994315
 Ga        48.1129163221       26.6481090091       40.3060150154
 Cl        49.5959743570       36.1855851001       22.5556475423
  P        41.6045055685       22.7464905801       28.1437118055
  P        38.9511540278       38.9523816378       36.2454372527
 Ga        13.2714625527       13.2711372196       23.9286470534
 Ga        13.2800419547       13.2796114057       29.3499319666
 Ga        48.2686238802       26.5515470637       45.8116073481
  P        41.5628983617       22.7430563348       33.5562889131
  P        38.9399856574       38.9429954501       41.6628498545
 Ga        13.1251582303       16.0640518122       21.3861040534
 Ga        13.3501498680       15.9791638879       26.7149209895
 Ga        13.2804550838       15.9805625340       32.1342916514
 Ga        43.0159938650       34.9154181447       37.6179987372
 Cl        46.5962528725        9.0397812627       31.4749016790
 Cl        38.6584452467       38.6590870753       47.2147433422
 Ga        13.3603161605       18.5367824115       18.5909047560
 Ga        13.3733153266       18.6881873764       23.9423413406
 Ga        13.3528520659       18.6832111644       29.4354928572
 Ga        13.2821115511       18.6802147788       34.8992656863
 Cl        41.5292639079       17.4695081349       17.3986155494
  P        39.2315233587       41.8632582598       11.9072804698
 Ga        13.1300807618       21.3815538042       16.0718216074
 Ga        13.4342605387       21.3063110065       21.3214710302
 Ga        13.4320320393       21.4024347027       26.7033760019
 Ga        13.3564903783       21.3871035691       32.1994772867
 Ga        13.2860810830       21.3922523238       37.6144551404
 Ga        48.3445775890       29.6447118026       15.9053662458
 Ga        40.2257934789       26.7964477813       32.2003516092
 Ga        13.2768887601       23.8699848654       13.2643395432
 Ga        13.4442081288       24.0069266902       18.6745292958
 Ga        13.4263569989       24.0776414202       24.0352822824
 Ga        13.4418759675       24.1164456710       29.4223955882
 Ga        13.3567821130       24.1001053601       34.9042422972
 Ga        13.2817891271       24.1533410479       40.3132682245
 Ga        48.1872075898       29.5946034003       21.3981417102
 Ga        13.1884607088       26.4792507294       10.6712676281
 Ga        13.3616381225       26.7094756055       15.9117453481
 Ga        13.4361550188       26.7112802579       21.3929926289
 Ga        13.4407820163       26.7909003842       26.7883955547
 Ga        13.4385275352       26.8723055990       32.1274085888
 Ga        13.3531738161       26.8535287749       37.6069120563
 Ga        13.2799142664       26.8699060214       43.0212644779
 Ga        48.0351660160       29.5722512386       26.7977882166
 Ga        43.0108616674       18.6787346865       21.3149917877
 Ga        13.2773535186       29.3391693594       13.2635591198
 Ga        13.3578765986       29.4420365200       18.6257499563
 Ga        13.4415966869       29.4207401242       24.1062934581
 Ga        13.4392251144       29.5035184698       29.4962854889
 Ga        13.4393555100       29.5800735579       34.8323013355
 Ga        13.3530118868       29.5626736142       40.3179664414
 Ga        13.2810708194       29.6487580630       45.7201080558
 Ga        48.0403321119       29.4259916394       32.1299354110
 Ga        40.2463465324       26.8009408424       37.6090730229
 Ga        13.2786349393       32.1259097070       15.9075545913
 Ga        13.3614382214       32.1445775902       21.3733586279
 Ga        13.4425940717       32.1282853362       26.8150065645
 Ga        13.4371401660       32.2063302288       32.2070440088
 Ga        13.4423173834       32.2813477995       37.5971940069
 Ga        13.3565745050       32.2803465801       43.0229958512
 Ga        13.1248235916       32.4479434011       48.2630628840
 Ga        43.0887314704       10.6609079631       29.5777976105
 Ga        13.2858470858       34.8404280692       18.6152737305
 Ga        13.3621274138       34.8993025440       24.0840804712
 Ga        13.4406369244       34.8360294880       29.5725631863
 Ga        13.4508640367       34.9075614718       34.9736243474
 Ga        13.4430974178       34.9927524499       40.3192763740
 Ga        13.2708552694       35.0715068602       45.7283659389
 Ga        43.0226625825       34.9046242277       43.0167642200