   1259
 i =       86, E =    -44819.6208560700
 Cl        20.6067426152       42.4061141891       20.7399994207
 Cl        25.9601163106       42.2314213954       25.9660409289
  S        39.7368475053       17.7354896916       26.1516794702
 Cl        42.2186941371       20.6240932327       26.0339280345
 Zn        33.0244248413       21.8023693987       40.9344465470
 Se        20.4065707022       34.3938388749       28.7559212045
  S        23.1683545030       37.1111269963       28.7808423099
  S        25.9315453441       39.6864340957       28.7385408609
 Cl        28.6471377088       42.2360313173       28.6517354171
 Se        20.3966405916       31.6093117346       20.3532440373
  S        34.0639257300       39.8719614515       31.4302781356
  S        12.0347682028       25.7452456804       17.8174867098
 Se        23.1709381562       31.6138438520       23.1708633689
 Zn        35.8470973501       21.8202660296       16.3170647139
 Se        23.1776986135       34.4418235511       20.3609430857
 Zn        33.0344144898       40.9294416005       21.8028225349
 Se        25.9961538648       17.5472659923       28.8031223242
 Zn        11.2328601805       29.7083079965       16.8795505053
  S        31.5894012523       14.9149609709       20.4121194658
 Zn        16.6584993217       35.3465964033       16.5667439791
  S        34.3879304398       17.6598246403       20.4330051676
 Zn        22.2312094076       40.7540190105       16.8017596554
  S        40.2305464287       30.1226853330       16.7400283580
 Se        23.2170880402       25.9693732661       17.5790833434
 Cl         9.7392747184       28.6864334266       23.3118250594
  S        12.2910589773       31.4976121771       23.2460430181
  S        26.0060235951       37.1560650558       20.3779022012
  S        17.7526564036       15.0193320359       34.4275924923
  S        20.4468329178       17.6579030013       34.3884329091
 Se        23.2107683017       20.4128032388       34.3939479424
 Se        26.0230810379       23.2213092089       34.4041760262
 Se        28.8235424976       26.0212020082       34.4525288276
 Se        31.6100084274       28.8320361861       34.4314101855
  S        34.3399038699       31.6324389177       34.3453309517
  S        28.7582597497       28.8055358053       37.1260052842
 Zn        40.8392121283       28.0253931157       17.2227758018
 Zn        10.9901140177       27.1123440432       19.3795381164
 Zn        13.5767519433       30.1884348346       19.0483161283
 Zn        16.3033429178       32.9456453463       18.9726544493
 Zn        19.0505348819       35.6939631531       18.9703809579
 Zn        21.8030979201       38.3608979643       18.9799014979
 Zn        24.8766508105       40.9335003427       19.3005412178
 Zn        26.8760368306       10.7330403419       16.0497558047
 Se        17.5611356501       20.3804606985       28.7895771007
  S        36.9927045402       34.4375597995       34.1994327366
 Cl        25.9839840694       42.2507932407       31.3654471854
  S        11.9594574701       23.4634142681       36.8071572691
  S        14.9066538443       26.0212567181       37.0608676655
  S        17.7044435529       28.7471134672       36.8838421781
  S        20.3362671668       31.6283923843       37.0379492257
 Zn        40.7680586139       16.7214290324       22.2187220797
 Cl        23.3900253328       17.9362185480       42.3334018467
 Cl        26.0144386966       20.6222977990       42.2488990387
  S        31.5467453978       31.6087292972       37.0817583459
 Zn        24.5518205631       33.0289288871       21.7790454049
 Zn        11.0649058637       24.4654726233       21.8792870198
 Zn        13.5750264482       27.3032928684       21.8143075474
 Zn        16.1528022977       30.1257669517       21.8025750509
 Zn        18.9693622111       33.0227944373       21.7229246143
 Zn        21.8080278681       35.8452857043       21.7950371062
 Zn        24.6354754412       38.4265396491       21.8035242769
 Zn        27.5285536467       40.9300401063       21.8154689281
  S        20.4180362111       37.0962661558       20.3855067402
 Se        20.3798547309       23.1700428886       28.7875308439
 Zn        35.9333674996       13.8264327293       24.4658819031
 Cl        28.8148339101       23.1310692841       42.2232177752
 Cl        31.2672778405       25.9621880412       42.2722006347
 Cl        34.1992672839       28.3452488413       42.3302631827
 Zn        11.0693303635       33.0261407604       30.1915464546
 Zn        35.0223279759       23.8796904968       41.2538327151
 Zn        33.1831399532       16.1339717602       14.2334651512
 Zn        13.8885776127       16.3876133589       21.7112026631
  S        20.5080250035       15.0580485874       37.0896245446
 Zn        13.8850078218       35.5962826359       30.2848525547
 Zn        11.0742268874       21.8043227973       24.5336946708
 Zn        13.6364030135       24.5534767927       24.5645345331
 Zn        16.1505581380       27.3736762349       24.6186509404
 Zn        18.9701124565       30.1995348673       24.5553903913
 Zn        21.7867219971       33.0280744421       24.5578015225
 Zn        24.6161348580       35.8492031503       24.5588163165
 Zn        27.3780093905       38.3621234536       24.5482445697
 Zn        30.1814121478       40.9248156356       24.5341475754
  S        23.2439990566       39.7198890676       20.4256017140
  S        23.2979984197       17.6952482934       37.1179128190
  S        26.0296598474       20.4679094323       37.0582592924
  S        28.7990878583       23.1958693497       37.1166908719
  S        31.5811120336       25.9783394499       37.1477665620
  S        34.2979925408       28.8183486004       37.1026269813
  S        37.0290179398       31.4237216941       37.0414878841
  S        25.9700036330       14.8491181943       20.4085001398
 Zn        29.7875327887       16.7969112438       11.3194689576
  S        23.1851926827       34.2819486192       36.9413414597
 Zn        16.4034507981       38.1150094155       30.2856913702
 Zn        11.0799370317       19.2943955521       27.1364108412
 Zn        13.6368140183       21.8059202513       27.3614824918
 Zn        16.1500182532       24.5604331125       27.3784611027
 Zn        18.9616540359       27.3746351265       27.3773763589
 Zn        21.7891865301       30.1985588913       27.3671240894
 Zn        24.5591166336       33.0249257131       27.3619047526
 Zn        27.3654801094       35.8425940490       27.3648408786
 Zn        30.1129900959       38.3562843129       27.2846604244
 Zn        32.7844837107       41.0146989649       27.2079512416
 Zn        39.0963819714       21.4722214087       14.4806553687
  S        25.9359533281       37.1045334958       37.0716382939
  S        28.5371339530       39.9482578267       36.9290458049
  S        23.2121947693       17.6685644394       15.0115021191
 Cl         9.5975608870       20.5869683982       31.2391782621
  S        34.1941735660       34.4394491649       36.9944885341
 Zn        18.9699125584       40.9335342870       30.1953030894
  S        23.2072842438       36.9152130895       34.2547706100
  S        25.8392113120       39.7299357868       34.2324595703
  S        23.3322028105       20.4955308026       39.6878075227
 Zn        11.3337061337       16.7229470937       29.7965236946
 Zn        13.6521594073       19.0522014288       30.1854306592
 Zn        16.1585823552       21.7996231203       30.1814477041
 Zn        18.9722257060       24.5564034060       30.1964959431
 Zn        21.7965587406       27.3695063108       30.1945309341
 Zn        24.6166508447       30.1931537499       30.1890440719
 Zn        27.3827691006       33.0205059765       30.1854609233
 Zn        30.1254236473       35.8386622759       30.1234613793
 Zn        32.8697679018       38.4345112744       30.1244858151
 Zn        35.2717293905       40.7660306567       29.7801456206
 Cl        26.0346762454       42.2763042784       20.6800777471
  S        23.1462901789       39.6578776020       31.5615623494
 Se        23.1870246332       25.9704008739       28.7845405737
  S        12.2724248367       23.2499745570       31.5258804817
  S        14.8444745398       25.9681011441       31.5731865850
 Se        17.5893680590       28.7627577386       31.5385863919
 Se        20.4220450133       31.5179120203       31.5006582960
 Se        23.2001055807       34.3333978763       31.5252837253
 Zn        16.2377207408       19.0585312880       21.7106099721
 Zn        18.9882667972       21.8052886845       21.8216398011
 Zn        14.1330803157       16.2364324217       33.0299088226
 Zn        16.3105157690       19.0519897043       33.0188013769
 Zn        18.9761704658       21.7287494104       33.0345101817
 Zn        21.7982610754       24.5553462077       33.0166967141
 Zn        24.6202402561       27.3782544135       33.0218659059
 Zn        27.3832913284       30.1983803676       33.0247780681
 Zn        30.2072168404       33.0354325808       33.0229748907
 Zn        32.8568241062       35.6935057975       32.8538515801
 Zn        35.2781346557       38.2733284476       32.4434509744
  S        23.2343347455       14.8476726537       28.7865334833
  S        23.4413717129       15.0606594845       39.9290238270
  S        26.1538473672       17.7570267999       39.7293549150
  S        28.8560335222       20.4179760466       39.6672882055
  S        31.5465504962       23.1333685846       39.6708288868
  S        34.2324479457       25.8135108660       39.8830941555
  S        36.8136206682       28.4994515482       40.0527720670
 Se        20.3825002663       28.7827664300       23.1837359479
 Zn        16.2178713400       27.2847277628       13.5693165492
  S        37.0612572834       20.4375715250       26.0328824178
 Zn        21.7961054280       24.6158965954       21.8013091723
 Zn        16.6473674197       16.7211036552       35.4288891286
 Zn        19.1415375040       19.1329515751       35.6953489500
 Zn        21.8736171774       21.8195616115       35.8454425570
 Zn        24.6238099718       24.6256098442       35.7876868396
 Zn        27.3778722895       27.3817207214       35.8481155477
 Zn        30.1782938275       30.1900528288       35.8402583965
 Zn        32.9408776777       33.0273023341       35.6933889694
 Zn        35.2820837080       35.4342047459       35.2833715235
 Zn        19.0642235346       30.1228151747       13.5675756085
 Cl        28.6077000237       42.3341600000       34.0498497593
  S        14.8931175802       34.2990377403       23.1836022647
 Zn        19.6353517416       11.0658373905       32.4395215082
 Zn        32.9511604456       21.8024982674       13.5710338159
 Se        25.9797857162       28.7929998185       28.7667691038
  S        25.9539804896       37.0527411811       31.5125665614
  S        28.6525738634       39.7007813576       31.4744652935
 Cl        37.7812809720       34.5599004016       37.7786089072
  S        25.9661953116       20.3990960346       14.8398483595
  S        28.7829887009       23.1780218533       14.8448797596
 Zn        24.6173072494       27.3742537535       21.7890896290
 Zn        19.5505851954       16.7121290305       38.2651276374
 Zn        21.8806023147       19.0659780774       38.4265444768
 Zn        24.7055015629       21.8798573599       38.3551917826
 Zn        27.3814421887       24.6157606561       38.3573491119
 Zn        30.1181098042       27.3644160330       38.3611732019
 Zn        32.8719601067       30.1952634425       38.3563227494
 Zn        35.8510490863       33.1915274329       37.7700572495
 Zn        21.8739215828       32.8664957532       13.5661365604
  S        31.5940784777       25.9565275557       14.8488487988
 Zn        11.0643429158       21.7965889765       18.9708386919
 Se        28.7493970675       20.4262874663       28.7478276118
 Zn        10.7474496611       16.8961527846       23.8823194574
 Zn        13.6422738994       19.0526158041       24.4646415902
 Zn        24.7109292779       35.7685976391       13.5621288456
 Zn        16.1522711157       21.7905380507       24.5548886708
 Zn        27.3688836418       30.1916290838       21.8012527299
 Se        31.5671581761       23.2537508330       28.7495354145
  S        15.0916390087       15.0493941278       20.3043345481
  S        17.7183858482       17.7032260070       20.4425388301
 Zn        30.1237744590       32.9502671248       21.8008721127
 Zn        22.2168858878       16.7190868119       40.7631349646
 Zn        24.7910157570       19.1550547829       41.0127770482
 Zn        27.4569908697       21.8056073872       40.9243399109
 Zn        30.1138964933       24.4750697567       40.9232629338
 Se        31.6027806950       17.5560762568       23.1839010336
 Se        34.4043212041       20.3971992681       23.2172697527
  S        37.1278126025       23.2351536636       23.2521781318
  S        39.6846619786       26.0624861957       23.2626106426
 Cl        42.2275010269       28.8100338119       23.1355515044
 Zn        32.6175593840       27.1308973965       40.9228424054
 Zn        35.1331546694       29.7854452801       40.6801391251
  S        36.9451026604       23.2137605320       34.2942811587
 Se        20.4365421907       20.4089350399       20.4703063415
 Se        23.2189299238       23.2026608036       20.4200334044
 Zn        35.1235841976       11.2400822878       22.2328973006
 Cl        19.9536250087       14.2608972864       40.5727785446
 Cl        28.6693241281       18.3318254470       42.6675425429
 Cl        32.1840968515       19.7633345128       41.5454791819
 Cl        33.4520035017       23.1903982580       42.7670355108
 Cl        36.6486465438       25.1018632710       42.3704790123
  S        12.3021637721       20.4324330660       28.7519745918
 Cl        10.5057580862       32.1841958337       32.2135186056
  S        31.4871663988       28.7538551186       39.7006160944
  S        23.3244115861       12.2457256841       31.5125596482
  S        39.6829334641       28.7519941280       31.5302702924
 Cl        42.4087932047       31.2541898824       31.3815037526
  S        20.4019638972       37.1579915920       26.0083325862
  S        34.1880297672       37.1583336998       34.1886554979
  S        25.9684113292       23.2024490525       12.3044974384
 Cl        32.2197494330       10.3960639372       32.2144336428
  S        34.3383344544       34.4075125981       31.5507498698
  S        15.0951331731       36.9050314405       31.7049957008
 Zn        13.6386218853       24.4588665952       19.0602977753
 Zn        16.1466045531       27.3746383824       18.9809005199
 Zn        18.9691973033       30.2037678984       18.9617784009
  S        23.2120415294       39.6929212419       26.0143355013
 Cl         9.2129720459       23.1464207979       18.5403163709
 Zn        35.9443304227       10.8172350541       25.1983552386
 Zn        30.2797373881       38.2712765571       21.7165314726
  S        36.9556353484       37.1457406935       31.4837661645
 Cl        19.8126420230       41.5656983209       32.2193196948
 Cl        42.2250698653       26.0274432160       26.0394676151
 Zn        21.8748587299       13.5739128907       32.9421383335
 Zn        21.8016817748       18.9741958689       11.0004412539
 Zn        24.4702762332       21.8746564333       11.0702624379
 Zn        27.3559042195       24.6283127978       11.0644512934
 Zn        30.1172549208       27.4621222873       11.0660110440
 Zn        33.0129936452       30.1234531451       10.9988481453
  S        39.8915978887       25.8038590364       34.2422335714
 Zn        32.9534353849       13.6361177723       21.8053306906
 Zn        18.9678400581       24.6097092099       24.6070452911
  S        26.0377538181       23.2514919466       39.7003597173
 Se        34.4436512177       26.0109021461       28.8168494541
 Se        26.0096035721       25.9488506240       20.3928121664
 Se        28.7430834083       28.7322139277       20.4300387152
 Se        31.5298044874       31.5048577429       20.4582252778
  S        34.2294620655       34.2107168206       20.4496407271
  S        36.8853504467       36.8256714744       20.2693956903
  S        12.0524147555       26.2058526779       34.1937395075
 Zn        32.8664204939       35.6891238837       21.7170159997
 Zn        21.7896892833       27.3788737860       24.6063214333
 Zn        24.6339327062       16.1468328266       32.9508808102
 Zn        21.7070782532       16.4014816811       13.8206112919
 Zn        24.4587205134       19.0616455599       13.6394159160
 Zn        27.3640007273       21.8095776173       13.5754305883
 Zn        30.1308414507       24.6240746058       13.5787122735
 Zn        32.9316438471       27.4595844514       13.6366614753
 Zn        35.5278114126       30.2160989292       13.8273010583
  S        15.0366697332       28.7585385527       34.2544604452
 Zn        35.7880778436       16.3137895174       21.8193211299
  S        12.1436160732       20.4808838416       34.1682790812
  S        14.9271490513       23.1429569941       34.3415932836
 Se        17.6251976030       25.9247267792       34.3118604647
  S        26.0392186188       14.8391052431       31.5747357556
 Zn        24.5626156829       30.2015370586       24.5578431503
 Se        20.3961251363       28.7695420419       34.3285730256
 Se        23.1957532259       31.5509607019       34.3213668241
 Se        26.0033450501       34.3504293847       34.3466581377
 Zn        27.3668992439       33.0206221577       24.5620515265
  S        34.1396313471       31.5495689197       39.8382219784
 Zn        27.3796547994       18.9815068539       32.9518944771
 Zn        21.7145080334       13.8857702245       16.3908002767
 Zn        24.6337712234       16.2280485112       16.2238476118
 Zn        27.3696909879       19.0446718217       16.1467989148
 Zn        30.1958393755       21.8047970107       16.1476712060
 Zn        33.0144749900       24.5580302269       16.1499454467
 Zn        35.7648902928       27.3034308416       16.2332616461
 Zn        38.0243802139       30.2763189180       16.4685351575
  S        17.7208928012       31.5548024849       34.2119974128
  S        14.8987969145       31.6543501339       31.6239090646
 Zn        30.1235171305       35.7761069760       24.5422370655
 Zn        32.8691891210       38.2779834122       24.5339986164
 Zn        34.7795366700       40.7734468393       23.9633653079
  S        28.6910318986       37.1477934983       34.2660024944
 Zn        32.4452407873       19.5531990168       11.0731459507
 Cl         9.7922506190       25.9822449974       25.9689632232
 Zn        16.0630378949       10.7333264040       26.8693563932
 Cl         9.6787487894       25.0523578280       15.2968996802
  S        11.9303497335       28.4814829537       15.1726870779
 Se        28.8062245457       31.5921064008       34.4116316176
 Zn        21.8082673909       11.0661195418       18.9012340492
 Zn        24.4641235840       13.6438001920       19.0596966386
 Zn        27.3710306385       16.1510586142       19.0469523314
 Zn        30.2142531438       18.9662739836       18.9701673567
 Zn        33.0374364834       21.7340620893       18.9742212052
 Zn        35.8402399882       24.6169946975       19.0527065180
 Zn        38.2827312517       27.4586636696       19.1277758869
 Zn        40.9290649291       30.1901617060       18.9628767090
 Zn        30.1924470532       21.8678687266       32.9450662093
  S        15.0099666182       31.5242023124       14.8336816930
  S        17.7853023500       34.2127477829       14.8549125539
 Zn        35.1918981881       22.2169914938       11.2381995131
 Zn        35.9418564295       25.1341503535       10.7420376356
 Zn        35.9381165449       26.8748783008       41.2671352980
 Cl        28.6932992772        9.7685276670       23.2637623275
  S        31.4264084752       39.8689508891       34.0610753118
 Zn        30.1958445878       19.0598732271       13.6410311125
  S        37.1191902016       28.8000371219       28.7805907162
  S        11.9604543862       15.0748497557       28.4815187544
 Zn        10.7320950978       35.9410865705       25.1257041923
 Zn        24.5354638835       11.0733892898       21.8079389612
 Zn        27.3673975850       13.6378523963       21.8644557238
 Zn        30.1899011582       16.1578845274       21.8048655699
 Zn        33.0336420325       18.9699965226       21.7916183241
 Zn        35.8425853883       21.8135405934       21.8739930789
 Zn        38.3563715217       24.7062104475       21.8861204473
 Zn        40.9248773146       27.4587723171       21.8127899273
 Se        28.7924098648       17.6141598275       31.5479386676
 Zn        16.0597131817       41.2675116161       25.1278231907
  S        28.7956317830       14.8788707182       23.2158050474
 Zn        21.7930783554       33.0263187492       18.9022329183
 Zn        35.5225977910       38.0199215166       21.6437829676
  S        15.0687143831       23.4587893513       39.9462706504
  S        17.7392689103       26.1462409569       39.7329370297
  S        20.3957991278       28.8478045992       39.6524509315
  S        23.1183549035       31.5384293851       39.6685385216
 Zn        24.6256452825       35.8427917656       18.9805155409
 Zn        27.5395602028       38.3505798744       19.0547642148
  S        14.9052111332       17.6430319949       28.8061112182
  S        21.8378563841       11.6852946916       16.6827504876
 Zn        27.3699127820       11.0692327991       24.6267047528
 Zn        30.1841025600       13.6291504098       24.6294979022
 Zn        32.9607890336       16.1490735450       24.6238815292
 Zn        35.7918889774       18.9903934032       24.6261677352
 Zn        38.3500147774       21.8707318111       24.7125060861
 Zn        40.9265906202       24.7057885410       24.7071794236
 Zn        32.4490484707       11.1505866560       19.5497717369
  S        31.5011873192       37.0599617016       25.9526979727
 Zn        30.1973995407       40.9329448303       18.9021674148
 Zn        10.8112513258       25.1377334426       35.9440285998
 Zn        21.7915779160       33.0178580205       40.9341774525
  S        25.6853001387       34.1736730063       39.9686129900
  S        28.4757550292       36.8158654698       40.0107266113
 Se        28.7784167628       31.5283255880       17.6471509891
 Zn        33.0133644543       24.6347924050       32.9578922609
  S        20.4906415657       20.4613432718       37.1019922120
  S        15.0281495244       28.5079909235       12.0737971728
  S        17.9010901665       31.4225622702       12.1231069752
  S        20.4316981736       34.2420127336       34.2291198946
 Zn        35.9375496109       24.4662449022       13.8130157202
 Zn        30.1262553631       11.0663124148       27.4593099872
 Zn        32.9361342342       13.6329057847       27.5379620483
 Zn        35.7624312766       16.2190810165       27.3654464566
 Zn        38.2841301266       19.0658880726       27.4595894736
 Zn        40.8598977253       21.7996860509       27.4616790305
 Cl        25.9970202679        9.7120426739       20.6626497480
  S        34.2013527355       39.7158054662       25.8621027866
  S        20.5672305896       34.0577285988       12.1354719360
  S        23.4695202923       36.9185652021       12.0391960328
  S        12.3232563480       28.7544728009       26.0132525361
 Se        17.5503010758       28.8018825125       25.9877507969
  S        15.0285665613       20.4918247219       37.1512429740
  S        17.7098805712       23.2787822689       37.1295771137
  S        20.4493359679       26.0293400886       37.0608340176
  S        23.1721814240       28.8238690003       37.0846079850
  S        25.9443408324       31.6027464602       37.1005602858
 Cl         9.7145420468       20.6506171495       25.9981247345
  S        12.3309851358       23.1832432368       25.9603064755
  S        31.5367622631       12.2803834963       23.2540081383
  S        14.9714031717       17.8062748125       34.3785323991
 Zn        33.0269332306       10.9892229647       30.1859018664
 Zn        35.5262152830       13.8228880414       30.2941142859
 Zn        38.0268063585       16.3957348200       30.2899749846
 Zn        40.9255875031       18.8935816946       30.1913773179
 Zn        38.2689973515       16.7170728764       19.5484567819
 Cl        37.7128887312       40.6835967373       32.0000699648
  S        28.8011440173       34.3481781452       37.0276108920
  S        31.4685007365       37.1340952658       36.9396079290
  S        28.7538367155       26.0080929520       12.3084676362
  S        31.5472183915       28.8077102949       12.3104063620
 Zn        23.7995908430       35.0244488035       41.2622204190
  S        20.5035791089       36.9584214259       14.8533779421
 Zn        35.8444943306       27.3729365798       32.9523928111
  S        11.6840857570       21.8028225191       16.7545794163
  S        14.9005357324       25.9417357779       14.9039869914
  S        17.6662231733       28.7226607378       14.8592704977
  S        20.4595194915       31.5073374205       14.8974768751
  S        23.2877105402       34.2848424485       14.8405397703
 Cl        19.7500366038       32.1716443902       41.5538264429
 Cl        15.3382917138        9.6240437531       25.1052641966
 Zn        16.1545613637       13.7394921549       27.5213241451
 Zn        19.0577172151       16.1400833367       27.3717634038
 Zn        21.7997238171       18.9686225633       27.3805899995
  S        28.7487437380       12.3120025295       20.4525875917
 Cl        23.1137105067       33.4694741330       42.7982485571
  S        26.0748227902       37.0759810583       14.8733758814
  S        30.1968081759       40.2988731611       16.6904125092
  S        12.2075096255       17.7365405734       31.5588487025
  S        23.5045306794       40.0362983903       15.1309526886
 Zn        38.3510125549       30.1913993966       32.9411127804
 Zn        26.7692484023       35.9459489042       41.1080311837
 Cl         9.5987511602       28.2641011127       17.7683123748
  S        17.6751706631       15.0030707616       23.2144697935
 Se        20.3952884444       17.5820570696       23.2281526990
 Cl         9.2377470586       33.4512615103       28.7967522770
  S        34.2811108356       28.7220703169       15.0275280201
 Cl         9.6252437267       15.2755220400       25.1080206178
 Se        20.3870542752       31.6027244680       25.9585290977
  S        17.9329062235       20.5681849299       39.8680951975
 Cl        25.0355221554       36.7212223290       42.2530236796
 Zn        38.4298237441       16.2193812607       24.7043024812
 Zn        41.0131246298       19.1503454348       24.7942810790
 Se        26.0232158412       26.0081985990       31.6099173377
 Zn        40.8508905994       32.4499161899       32.4433693086
  S        12.0726241856       31.4804251543       17.8317905961
  S        15.0270030939       23.1951390641       17.6990140348
 Se        17.6148951356       26.0107341443       17.6308138148
 Se        20.3919098069       28.7690225581       17.5798576827
 Se        23.1989400573       31.5619821343       17.5574223509
 Se        25.9623740625       34.3563989082       17.6174052273
  S        28.7911941758       36.9487975670       17.6922784473
 Cl         9.2419787792       18.4767175200       23.2110497069
  S        31.5439644522       17.7340335876       34.2393640451
  S        20.5110797928       23.3336398347       39.6936745273
  S        23.2239073617       26.0642393985       39.6820438869
  S        25.9477168496       28.7811123318       39.6773611284
  S        36.8618149969       31.6332236663       15.0527478430
 Zn        10.7368562059       15.9804107943       26.8751831746
 Zn        13.7358404913       16.1506042835       27.4438808512
 Zn        16.1542083463       18.9927369595       27.3719465272
 Zn        18.9698631344       21.7890961464       27.3805387533
 Zn        21.7943989635       24.5547939793       27.3828823341
  S        28.6703288659       31.5401931127       39.7149190377
  S        31.4395282934       34.1573962140       39.8763987011
  S        25.9760036998       14.8963595937       14.8954498710
  S        34.3452542246       14.9175944599       23.1763365184
 Cl         9.2114371663       28.7854980541       33.4579876748
  S        28.7974335493       17.6674337573       14.8888866612
 Se        20.4062710213       28.7529872721       28.7499386125
  S        11.6890071806       16.6757490146       21.8402321038
  S        14.9083654918       20.3287122905       20.3499574836
 Se        17.5971109179       23.1891225971       20.4214138994
 Se        20.3882166128       25.9864364398       20.3927692924
 Se        23.2020438446       28.7789027895       20.3852433140
 Se        25.9640041064       31.5890145899       20.4109484872
 Se        23.2159469220       31.5714199186       28.7503155825
 Cl        25.1026441378       15.3431678499        9.6154600630
 Cl        28.3541645377       17.7469609238        9.6610587176
 Cl        31.2550573814       20.6238134390        9.5193531977
 Cl        34.2519335801       23.6765963389        9.6066154940
 Cl        36.6875746135       26.8987075332        9.6408847409