     608
 i =       66, E =    -23020.8419553734
 Cl         8.7203559169       13.9649346636       16.6845999542
 Cl         8.1291076767       14.5412507119       21.8912535639
 Cl         8.8550847028       16.2497154944       14.0089279068
 Cl         8.6791414409       16.8922750890       19.5030894387
 Cl         8.1456234322       17.3572371281       24.6644480119
 Cl         8.2201491739       18.7897567223       11.7562895443
 Cl         8.6746972337       19.3663399863       16.9583158999
 Cl         8.7000681876       19.7367313114       22.3059027744
 Cl         8.1407609540       20.2085875771       27.4869896632
 Cl         8.1053077232       21.7073820560       14.5661168814
 Cl         8.7054453804       22.2033874157       19.7928596572
 Cl         8.7042095037       22.5771752217       25.0938169625
 Cl         8.0971956183       24.5514040974       17.4206775375
 Cl         8.7015119038       25.0551421597       22.5572208241
 Cl         8.7034236666       25.3961984758       27.9304619297
 Cl         8.1236020256       27.4398588584       20.1869681081
 Cl         8.6928405524       27.8460056390       25.3715399917
 Cl         8.1948469119       30.2907505555       23.0294409893
 Ga         9.9293798767       12.4650883909       18.2928146197
 Ga        10.0065680405       15.3527447662       15.5885101486
 Ga         9.8460249484       15.4186508491       21.0847051844
 Ga        10.0812966648       18.0566488979       12.3995754647
 Ga        10.0166778794       18.2000856300       18.2855694084
 Ga         9.8483367502       18.2840350772       23.8763678775
 Ga         9.8463522861       20.9254172897       15.4181687406
 Ga        10.0795838642       21.0043788889       21.0787174262
 Ga         9.8453785187       21.1580346791       26.7306069746
 Ga         9.8420635196       23.7845136949       18.2833766767
 Ga        10.0720223372       23.8708505687       23.8747219952
 Ga         9.9253669761       24.1021584761       29.6081534337
 Ga         9.8414393775       26.6497839007       21.0812978301
 Ga        10.0965500828       26.7488724550       26.8098244297
 Ga         9.8506668148       29.4559795643       24.0326237434
 Cl        11.7203539552        8.1692659191       19.1644197731
 As        10.9806578680       10.9616245932       16.7520481811
 Cl         8.1923550603       11.6662776430       19.1589721130
 Cl        11.3687695145       13.8933719200       14.3953487224
 As        11.1898930029       13.9789964472       19.6796966682
 Cl        11.3081532846       14.1405638659       25.0508638845
 As        11.1354523434       16.4915809808       10.9968224427
 As        11.3481489866       16.7757728379       16.8806984508
 As        11.2002857200       16.8339667327       22.4599542813
 Cl        11.3148156980       16.9696790978       27.8118139726
 As        11.1922578229       19.5073661395       13.9881969254
 As        11.3471546332       19.5697755907       19.6689395234
 As        11.1774046404       19.6985120999       25.2732102584
 Cl         8.2581739325       23.0507747053       30.3651168281
 Cl        11.6916999256       18.9778714016        8.1861384032
 As        11.1658416071       22.3349358647       16.8588247202
 As        11.3412700154       22.4339354291       22.4555489630
 As        11.1761723839       22.5920141137       28.0762484656
 Cl        11.6970228588       23.0601870865       33.7530879658
 Cl        11.1663196452       24.8499124846       14.2271164865
 As        11.1776259824       25.2092432811       19.6629545390
 As        11.3059417012       25.2874717030       25.2766127762
 As        11.0730713346       25.6218933287       30.9709492150
 Cl        11.1910518388       27.7934064151       17.0685614945
 As        11.1579145841       28.0236813352       22.5155815209
 As        11.1388479585       28.2519101880       28.2394992052
 Cl        11.6936963846       33.7708691800       23.0576347790
 As        11.0216708486       30.9040625678       25.5142557951
 Ga        12.4723527948        9.9227742912       18.2928439307
 Ga        12.5533084436       12.4845412664       15.9942005464
 Ga        12.6274951110       12.5602095626       21.0894032005
 Ga        12.8806367924       15.6001600556       12.2982939064
 Ga        12.6393654185       15.3511711070       18.3681101411
 Ga        12.5705112208       15.3498940208       23.8703995749
 Ga        12.5573129031       18.0443512905        9.8564485508
 Ga        12.6358394523       18.2145615588       15.3647081565
 Ga        12.7001812938       18.1360320413       21.0888590298
 Ga        12.5612297892       18.2842438701       26.7276640470
 Ga        12.6275093096       20.9341092477       12.5644448884
 Ga        12.6379017094       21.0090182762       18.2094279393
 Ga        12.6499328042       20.9997302544       23.8822367230
 Ga        12.5566546900       21.1525506772       29.4519592593
 Ga        12.5535677191       23.7920077242       15.4181769269
 Ga        12.6413410140       23.8627260485       20.9971125495
 Ga        12.6447656447       23.8545617902       26.6580844827
 Ga        12.4687103780       24.1003519653       32.0823633593
 Ga        12.5547106015       26.6510256314       18.2034319616
 Ga        12.6353325290       26.6462657628       23.7947754936
 Ga        12.5569435181       26.7414442445       29.4540704832
 Ga        12.5497794904       29.3884289336       21.0690998712
 Ga        12.3663064956       29.2090833623       26.4846781514
 Ga        12.3878859504       31.9906322539       23.9447118909
 Cl        14.0268325259        8.7241509646       16.6833688991
 Cl        14.5632283087        8.1266026814       21.9080208576
 Cl        13.9483914523       11.3290349203       14.3831765113
 As        14.0275038643       11.1721369196       19.6487585670
 Cl        14.2254892269       11.2785309810       25.0510627855
 As        13.8555470006       13.8114769183       11.1219518973
 As        14.0673338326       14.0311725931       16.9285392885
 As        14.0119241801       13.9722323902       22.4636450560
 Cl        11.2939543259       30.6830810839       19.9564555214
 Cl        14.1815233965       16.6584423171        8.6815864988
 As        14.0311587334       16.7853514268       14.0318072759
 As        14.0663551386       16.7752351841       19.6593661915
 As        13.9492986345       16.8537412251       25.2184025451
 Cl        17.3137966255       17.3560821803       33.8737815452
 As        14.0206616246       19.4958087925       11.1692778289
 As        14.0014117658       19.5740307573       16.8220583583
 As        14.0289022277       19.6138653850       22.4324918094
 As        13.9727292096       19.7002156853       28.0579885383
 Cl        14.5344576386       20.2081614974       33.8478668067
 Cl        14.5564960592       21.7802221028        8.1407959629
 As        13.9572932469       22.3600483445       14.0078995933
 As        14.0102626498       22.4115108435       19.6127801605
 As        14.0323966529       22.4222281472       25.2372198008
 As        13.9611694816       22.5735582061       30.8330360661
 Cl        14.1464214790       24.8849786606       11.2655476953
 As        13.9512465395       25.2229009945       16.7950736907
 As        14.0232041347       25.2178504713       22.4145849585
 As        13.9781860474       25.2803030047       28.0328295343
 Cl        14.1314775831       25.4025970633       33.3027127376
 Cl        14.1106583978       27.8420553673       14.1202912218
 As        13.9545829884       28.0310164716       19.6266088174
 As        14.0306937078       27.9805351055       25.2288363286
 As        13.7850085402       28.2438518479       30.8894287162
 Cl        14.1847711713       30.7942431643       17.0652051655
 As        13.9515384170       30.8099268972       22.4912170544
 Cl        14.1176927431       30.6885467160       27.8961025146
 Cl        14.5161314821       33.8702980972       20.1980346102
 Cl        13.9858721101       33.2441550134       25.5239621816
 Ga        15.4233471361       10.0023158946       15.5919642201
 Ga        15.4257572168        9.8404927478       21.0830101641
 Ga        15.6695597316       12.8773666481       12.3059219668
 Ga        15.4210651226       12.6353109499       18.3645868717
 Ga        15.4143865098       12.5615242508       23.8684706836
 Ga        15.3385379532       15.3325210701       10.0858791856
 Ga        15.4293491309       15.4178258890       15.4203030394
 Ga        15.4189543070       15.3550811668       21.0864056066
 Ga        15.6711834257       15.6763063027       26.3456630424
 Ga        15.4219664129       18.2202493071       12.6391735908
 Ga        15.4200155464       18.2068644267       18.2172153739
 Ga        15.4192253284       18.2099806742       23.8105809399
 Ga        15.3393221357       18.2789587939       29.4437187055
 Ga        15.4203914886       20.9337588363        9.8478577044
 Ga        15.3538205340       21.0180514902       15.4226679105
 Ga        15.4175119584       21.0062943449       21.0020314073
 Ga        15.4109471096       21.0034717367       26.6432952361
 Ga        15.3373991892       21.1507895453       32.1583585423
 Ga        15.3455883168       23.7998687826       12.6250669302
 Ga        15.3527426098       23.8648745441       18.2001839149
 Ga        15.4171335695       23.7944454867       23.7993995288
 Ga        15.3473090301       23.8579133024       29.3641005904
 Ga        15.3398962528       26.6517024587       15.3485045669
 Ga        15.3548549292       26.6427706981       20.9886485618
 Ga        15.4165471884       26.5792349199       26.6457871113
 Ga        15.2595746695       26.7562218096       31.9050238041
 Ga        15.3381128362       29.4442398627       18.2070553987
 Ga        15.3368150561       29.3587228704       23.7843064900
 Ga        15.5189004265       29.2782681805       29.6977436812
 Ga        15.3339689625       32.1554972370       21.0747998218
 Ga        15.4211607793       31.9971776074       26.5770361730
 Cl        16.3284282383        8.8132491703       14.0356131972
 Cl        16.9212215367        8.6756679850       19.5065005771
 Cl        17.4020044631        8.1293040154       24.6676916615
 As        16.5235313138       11.0950351846       11.0483708905
 As        16.8378374193       11.3555907951       16.8692641113
 As        16.8663536394       11.1830798284       22.4461588969
 Cl        16.9983315574       11.2990883516       27.7707619830
 Cl        16.6802654157       14.1501637816        8.7134778942
 As        16.8392846030       14.0338325834       14.0404458721
 As        16.8499902298       14.0285661443       19.6658351711
 As        16.8702678672       13.9656617949       25.2101436091
 Cl        16.9434667255       14.1693467909       30.6559619187
 As        16.8135703040       16.7827925694       11.3042004972
 As        16.8125192395       16.7994007879       16.8266586248
 As        16.8148651041       16.8095620470       22.4107830410
 As        16.8232225775       16.8471199447       28.0545564024
 Cl        16.9572896831       19.4537198862        8.6572468990
 As        16.7874966543       19.6074273129       14.0588418278
 As        16.8103170181       19.6004760598       19.6049122738
 As        16.8051964823       19.6136777564       25.2048416433
 As        16.7705893615       19.6814002773       30.8357132701
 As        16.7998492675       22.3769158882       11.2028287137
 As        16.7691966107       22.4132146924       16.8232446445
 As        16.8126642088       22.3987534483       22.3933429893
 As        16.7877127318       22.4368771239       27.9927843435
 Cl        16.9156905097       22.5769989073       33.3398632031
 Cl        17.3806526742       24.6120896906        8.1217951890
 As        16.7821750366       25.2285899481       13.9694911396
 As        16.7838334273       25.2249744023       19.6044442424
 As        16.8097139122       25.1981124107       25.1978679741
 As        16.7548721645       25.2779614666       30.7049783271
 Cl        17.0740229046       27.7915755668       11.1861008342
 As        16.7462128514       28.0507251394       16.7779022158
 As        16.7789728804       27.9802609779       22.4149634836
 As        16.7780736407       28.0238373291       28.0145007672
 Cl        16.6849125937       27.8920056420       33.2893237143
 Cl        17.0410922090       30.7991406527       14.1572144280
 As        16.7692052937       30.8217459789       19.6607578103
 As        16.7827253526       30.6677071854       25.2121569664
 As        16.5229643239       30.9739858339       31.0131830087
 Cl        17.3128965595       33.8771544764       17.3600016784
 Cl        16.8708073980       33.3472593429       22.5764946417
 Cl        16.4666343528       33.2691109721       27.9957196097
 Ga        18.0638876214       10.0098465252       12.4693202971
 Ga        18.2200020406       10.0118259806       18.2844788034
 Ga        18.2926876730        9.8438925637       23.8693521723
 Ga        18.0538165041       12.5469156902        9.9224065462
 Ga        18.2936654232       12.6396823058       15.3576424578
 Ga        18.2140549971       12.6392528152       21.0844904881
 Ga        18.2860395627       12.5621082441       26.6694962802
 Ga        18.2871995432       15.4168374342       12.6408377327
 Ga        18.2329851481       15.4185103428       18.2136654818
 Ga        18.2168888994       15.4237152918       23.8011071899
 Ga        18.2070066505       15.3426910405       29.4364341396
 Ga        18.2056898380       18.2098216353       10.0188098967
 Ga        18.2166727468       18.2099455077       15.4237861430
 Ga        18.2146275355       18.2056255904       20.9994096327
 Ga        18.2080230092       18.2101024118       26.5840684539
 Ga        18.1388745504       18.2161789314       32.1564548703
 Ga        18.1388813935       21.0762000400       12.7029092778
 Ga        18.2029139018       21.0097866743       18.2012345756
 Ga        18.2078976858       21.0003644438       23.7945154547
 Ga        18.1369207893       21.0000781983       29.3625438885
 Ga        18.2151538025       23.7919389695        9.8540095738
 Ga        18.1295129061       23.8645281186       15.4185891853
 Ga        18.1998268219       23.8040272835       20.9917922535
 Ga        18.2084779574       23.7962668645       26.5827628034
 Ga        18.1384083294       23.8682941741       31.9832178281
 Ga        18.1993126289       26.6489085049       12.5585051901
 Ga        18.1286313736       26.6479799213       18.1490201151
 Ga        18.2055186909       26.5818409769       23.7955533018
 Ga        18.2155660722       26.6571392733       29.3713422799
 Ga        18.1325614403       29.4457128218       15.3496806755
 Ga        18.1318853869       29.3602484001       20.9930891322
 Ga        18.2213362539       29.3647699681       26.6664209365
 Ga        18.0433865540       29.5251485470       32.1442820885
 Ga        18.1361289760       32.1553117101       18.2125698356
 Ga        18.1418724035       31.9929223301       23.7996634447
 Ga        18.0588913580       32.0616255711       29.6066123774
 Cl        19.4121640674        8.6797002998       16.9637141478
 Cl        19.7856642808        8.7137321152       22.3059317223
 Cl        20.2060050956        8.1533049979       27.4528904915
 Cl        18.9897015839       11.6707904888        8.2532442072
 As        19.5623940948       11.1599502949       13.9941292091
 As        19.6375826637       11.3233164830       19.6490155098
 As        19.7109228482       11.1971448442       25.2337173041
 Cl        19.9019329367       11.3226021711       30.7036598887
 As        19.5481806067       13.9903602657       11.1913879714
 As        19.6407656095       14.0158895872       16.8099483616
 As        19.6351161624       14.0480605309       22.4144036872
 As        19.6598614030       13.9842526609       28.0481914202
 Cl        20.1405029847       14.5342905803       33.8767923580
 Cl        19.4556457676       16.9616641842        8.6632952633
 As        19.6381966519       16.8058100339       14.0470409371
 As        19.6367594240       16.8113260611       19.6033163775
 As        19.6162356594       16.8075845259       25.2042528302
 As        19.5884941283       16.7986749349       30.8377160450
 As        19.5647253442       19.6237210566       11.3546615644
 As        19.6176005903       19.5958482755       16.8231143588
 As        19.6052665053       19.6006076514       22.3941433603
 As        19.5836205627       19.6110142646       27.9897026820
 Cl        19.7193148986       19.7263538495       33.2721908214
 Cl        19.7596075354       22.2546457481        8.7069383434
 As        19.5823240792       22.4372312808       14.0648407380
 As        19.6016679223       22.3965292115       19.6007253888
 As        19.6067347753       22.3961257323       25.1900838035
 As        19.5599482764       22.4367913900       30.6883651159
 As        19.6579685645       25.2025686086       11.1840715044
 As        19.5721150231       25.2141855816       16.8169730457
 As        19.6046657031       25.1880529677       22.3961392208
 As        19.5849514518       25.2267311440       27.9785720722
 Cl        19.4412725640       25.0815337166       33.3301441465
 Cl        20.2262490680       27.4596346181        8.1076660970
 As        19.5923881403       28.0481754236       13.9747948417
 As        19.5556525216       27.9729517502       19.6083687838
 As        19.5848456345       27.9855422617       25.2178529936
 As        19.5190901029       28.0598117914       30.8291662779
 Cl        23.0898590185       30.3499190387        8.2422114920
 As        19.5786414472       30.8132499279       16.8227666511
 As        19.5581389608       30.6871670583       22.4189539622
 As        19.5096113831       30.8353625093       28.0541754860
 Cl        20.1555313868       33.8719933516       14.5691934433
 Cl        19.6845408805       33.3348394287       19.7430205045
 Cl        19.3865916853       33.3261018325       25.0774140586
 Cl        18.9468085413       33.8539156076       30.2625815408
 Ga        21.0022748403        9.8434314904       15.4235652412
 Ga        21.0766545918       10.0791905270       21.0785229827
 Ga        21.1511700081        9.8449414262       26.6606361557
 Ga        21.0039238980       12.5604387732       12.5606473093
 Ga        21.0784516678       12.6403170793       18.2026107030
 Ga        21.0050741281       12.7071090412       23.8740992098
 Ga        21.0727505383       12.5576852101       29.4463985605
 Ga        20.9333969665       15.4165209897        9.8435384966
 Ga        21.0813466608       15.3537102232       15.3626097506
 Ga        21.0691937213       15.4252376899       20.9990772317
 Ga        20.9968349345       15.4149654654       26.6467559551
 Ga        21.0053206577       15.3479456800       32.1564179294
 Ga        21.0179206373       18.2029148013       12.6426891999
 Ga        21.0674677516       18.2015855046       18.2009370388
 Ga        21.0052580191       18.2063878194       23.7927242900
 Ga        20.9300715827       18.1456643190       29.3640034836
 Ga        20.9976893603       21.0050003609       10.0830896066
 Ga        20.9992365261       21.0018002351       15.4180133087
 Ga        21.0038141792       21.0008706151       20.9996170169
 Ga        21.0052457019       21.0067166618       26.5903122238
 Ga        20.9852390519       21.0028933492       31.9204604404
 Ga        20.9746171015       23.8663281156       12.6983617113
 Ga        20.9908820923       23.7998364338       18.2050458076
 Ga        21.0094402964       23.8025741166       23.8050010469
 Ga        21.0032338125       23.8629966053       29.3606758474
 Ga        21.0643166037       26.6516334068        9.8438328154
 Ga        20.9205203578       26.6519728382       15.4150091435
 Ga        20.9943996404       26.5869154077       21.0018489141
 Ga        21.0118484851       26.6462217896       26.6481304180
 Ga        20.9226142463       26.6569137285       32.1575180111
 Ga        20.9979028648       29.4508934181       12.5726408870
 Ga        20.9174754786       29.3658085560       18.2033489593
 Ga        21.0034812430       29.3662177385       23.8617104201
 Ga        20.9899729243       29.4460079542       29.4490889375
 Ga        20.9973241757       32.1565192470       15.4216505881
 Ga        20.9344063670       31.9924408464       21.0064861430
 Ga        20.9200491030       32.1598957644       26.6580441481
 Cl        21.7790268996        8.0936774720       14.5854682590
 Cl        22.2817618078        8.7017760844       19.8096853135
 Cl        22.5709287189        8.7042857871       25.0774159719
 Cl        23.0022720572        8.2839254762       30.3770714244
 Cl        18.8173124526        8.1662268224       11.7962620787
 As        22.4121675100       11.1656599527       16.8589734032
 As        22.4567975033       11.3843372672       22.4606134092
 As        22.5259728352       11.1903148502       28.0616131493
 Cl        23.0369348593       11.7660658228       33.8366237471
 Cl        21.7808374152       14.5686990553        8.1280728414
 As        22.4252712957       13.9332035807       13.9762398547
 As        22.4569778258       14.0466660305       19.5836489072
 As        22.4276824284       14.0672815356       25.2351855460
 As        22.4753004635       13.9851092551       30.8429794287
 As        22.3479495200       16.8211051703       11.1912071776
 As        22.4418536653       16.8047068928       16.7634820442
 As        22.4401622539       16.8231118030       22.4028735533
 As        22.3999981971       16.8130856680       28.0021705823
 Cl        22.5344489276       16.9205581791       33.3134387102
 Cl        22.2489564752       19.7585188928        8.7148457073
 As        22.4169737439       19.6128285616       14.0163733100
 As        22.4282119757       19.6009909900       19.6131726462
 As        22.3955581896       19.6080363378       25.1921798524
 As        22.3962403515       19.6000388999       30.6529110239
 As        22.4033405386       22.4261081685       11.3519965184
 As        22.3987009992       22.3987303967       16.8108256417
 As        22.3984307355       22.3992559425       22.3996635284
 As        22.4028482059       22.4351429545       27.9846997213
 Cl        22.2271843346       22.2354678990       33.3088010287
 Cl        22.5922233348       25.0894361532        8.6616832887
 As        22.3903687885       25.2372556582       14.0597678610
 As        22.3953510573       25.1876495589       19.6018252092
 As        22.3931125934       25.2177323182       25.2290225114
 As        22.3338666864       25.2157161537       30.8220492249
 As        22.4653275467       28.0643915498       11.1786305001
 As        22.3576455475       27.9800398209       16.8316661562
 As        22.3800352634       27.9905863656       22.4151663098
 As        22.3789437457       28.0444846019       28.0417240266
 Cl        21.8047322114       27.4610345090       33.8768360714
 As        22.4320610121       30.8341387797       14.0147124135
 As        22.3567781296       30.7048932936       19.6025584636
 As        22.3342136029       30.8264969294       25.2236750443
 Cl        19.0362104351       30.3567833176       33.8053269849
 Cl        22.9789162233       33.8223854675       11.7580955949
 Cl        22.5169229050       33.3317677034       16.9508912637
 Cl        22.2069321524       33.3154415120       22.2710407027
 Cl        21.7781122423       33.9080971566       27.4220701589
 Ga        23.8670480446        9.8461933256       18.2917057956
 Ga        23.8748848801       10.0842699779       23.8728034770
 Ga        24.0302532608        9.9237380318       29.5366994090
 Ga        23.8693571292       12.5552419824       15.4177618577
 Ga        23.8782250157       12.7018329697       20.9995920548
 Ga        23.7921801086       12.6539245190       26.6557122869
 Ga        23.9441956815       12.4670610530       32.0691359941
 Ga        23.8020387034       15.3522664573       12.5575560583
 Ga        23.8745692229       15.4141451016       18.1353786596
 Ga        23.8543728700       15.4224542216       23.7976522836
 Ga        23.7764069914       15.3469641111       29.3614234137
 Ga        23.7800101677       18.2057656470        9.8468742743
 Ga        23.8679784255       18.1870120201       15.3454350625
 Ga        23.8635114424       18.2062503000       20.9973272898
 Ga        23.7937940888       18.2168524452       26.5901859576
 Ga        23.7829758605       18.2155757247       31.9892707350
 Ga        23.8531843581       20.9909411684       12.6445437019
 Ga        23.8033638822       20.9951407382       18.2030417155
 Ga        23.8009453317       21.0110204699       23.8039115478
 Ga        23.8567745231       21.0743842823       29.3603441721
 Ga        23.7915558241       23.7948558887       10.0141648593
 Ga        23.7920709195       23.7928261443       15.4194653763
 Ga        23.7967605010       23.7997918813       21.0111481270
 Ga        23.8552044841       23.8673566522       26.6484677455
 Ga        23.7248307812       23.7925984181       32.1591615721
 Ga        23.7163486788       26.6618022024       12.6367610308
 Ga        23.7866679448       26.5821896231       18.2096242263
 Ga        23.7961310843       26.6485129309       23.8683382623
 Ga        23.7951257621       26.6545753026       29.4475515294
 Ga        23.9440005410       29.6155111125       10.0189047555
 Ga        23.7107681344       29.3703734097       15.4197285007
 Ga        23.7856000804       29.3664596144       21.0167996040
 Ga        23.7957446912       29.4434350272       26.6561221678
 Ga        23.9344343933       32.1543532919       12.6191385734
 Ga        23.7858176968       31.9887417452       18.2082348274
 Ga        23.7765724464       32.1562392439       23.8526102045
 Cl        24.6345523645        8.1053685796       17.4243774819
 Cl        25.0803166426        8.7067775549       22.6008058745
 Cl        25.3514901583        8.7475252502       27.9293149621
 Cl        24.9044215241       14.2179771264       11.1579935532
 As        25.2441767632       11.1816126540       19.7251639373
 As        25.2591473562       11.3274866446       25.2995096705
 As        25.5080571069       11.0785361738       30.9930431787
 Cl        24.6220296175       17.3974502507        8.1128519177
 As        25.2609723003       13.9614620360       16.8136028048
 As        25.2612446897       14.0385321015       22.4269035925
 As        25.2302672945       14.0347827168       28.0057140431
 Cl        25.4646466354       14.0853918337       33.2877183269
 As        25.2349964750       16.7782623997       13.9439844685
 As        25.2382478264       16.7981879477       19.5867639300
 As        25.2040502416       16.8170657161       25.2285199192
 As        25.1765257134       16.8485023663       30.6482513788
 As        25.1750325513       19.6176351700       11.1935832991
 As        25.2203677463       19.5799247656       16.7959634322
 As        25.2128400124       19.6120518037       22.4204032811
 As        25.2066028061       19.6384984994       27.9753183950
 Cl        25.0623875043       19.4463365816       33.3241382378
 Cl        25.0675181976       22.5354223260        8.6823634542
 As        25.2212259657       22.3830146366       14.0435778921
 As        25.1913017452       22.3973217457       19.6043252019
 As        25.1966612065       22.4218378180       25.2236083176
 As        25.1925342419       22.4082698614       30.8341543918
 As        25.1816439205       25.2395283245       11.3014566757
 As        25.2080731741       25.1986767687       16.7942521783
 As        25.1682857912       25.2219262624       22.4299788958
 As        25.2218407616       25.2524673638       28.0532759343
 Cl        24.5580912518       24.6137916446       33.8963812744
 Cl        25.6175348256       28.1689281350        8.8505270955
 As        25.1673361489       28.0049438807       14.0187531198
 As        25.1760464657       27.9806361620       19.6093362524
 As        25.1978586863       28.0462370534       25.2315734106
 Cl        24.9091642267       27.8264716420       30.8043492038
 As        25.4547483291       31.0540582672       11.1356254823
 As        25.1887459764       30.7184088475       16.7817419246
 As        25.1335781996       30.8222597463       22.3755066210
 Cl        24.9230781319       30.8215543528       27.7907303450
 Cl        25.3089669805       33.3710411857       14.1992785024
 Cl        25.0300856565       33.3361252129       19.4718521012
 Cl        24.6187000816       33.9021389762       24.6283554384
 Ga        26.7248727224        9.8495727180       21.1575419320
 Ga        26.7550497935       10.1663028054       26.8173520229
 Ga        26.6629426838       12.5604687649       18.2782187072
 Ga        26.6621382527       12.6415466727       23.8593732730
 Ga        26.4895193444       12.3880427200       29.2841703550
 Ga        26.6573993557       15.3413962924       15.3485525959
 Ga        26.6579093469       15.4133891839       20.9996800313
 Ga        26.6458003307       15.4193832113       26.5932609274
 Ga        26.5105443383       15.4996436955       31.9999385411
 Ga        26.6551816611       18.1921231256       12.5571784022
 Ga        26.6530297815       18.1366975835       18.1424330350