    1847
 i =       82, E =    -56807.3107585551
 In        37.7023152671       19.3367423265       43.0760407160
 In        25.5261350309       37.4634258202       43.5780421338
 In        34.5113549869       19.4980592807       28.4709764725
 In        37.5508608082       37.6159333134       31.5810203552
 In        31.5773507968       19.4182089191       19.4254922912
 As        42.0052413991       18.0357413815       27.0444090172
 As        41.9285555826       18.1563274779       32.7937314470
 In        31.5845827241       28.5630991716       34.5322908808
 In        43.6563840086       19.5806650714       19.5794359738
 As        42.2418563289       17.6366298701       39.1881039279
 As        33.0285714653       38.9517873035       14.9334306166
 In        31.5081468703       19.4963706800       25.4713783080
 As        32.9394794086       38.9178859364       21.0064736982
 Cl        42.2141484180       21.4153596325       12.2161860346
 As        42.1187087159       21.0259158988       18.0597470641
 As        41.9757640134       21.0752335427       24.0490684537
 As        42.0205203695       20.9619870348       30.0549903514
 In        37.5388628488       37.5498560026       25.6126465070
 In        31.4994057395       19.5002684698       31.4854682202
 As        41.9284286566       20.9661520412       35.9309542129
 As        42.2961026135       20.6211656150       42.1853097281
 As        32.9785840416       39.0521166891       26.9855558964
 Cl        44.7936176523       24.1567631041       24.1093821515
 In        34.5197597074       19.4945608616       34.4428049905
 Cl        41.9955242321       24.4454978121        9.0224324805
 As        42.1336996820       24.0129513481       14.9921760082
 As        41.9986090889       24.0886059031       21.0726719682
 As        42.0736791696       24.1235523222       26.9101908567
 As        42.0661086987       24.0460380927       32.8346909329
 Cl        44.7524338814       32.7602034407       26.6913873681
 In        43.4034900719       19.5808888513       25.5580968099
 As        42.0811991757       23.9152052979       39.0114425125
 Cl        41.4306536530       23.2853604355       45.2878566617
 Cl        41.3654369800       27.6569913066        5.6394917745
 As        42.0495791040       27.0199161156       11.9537113933
 As        41.9618282274       27.0619152995       18.0306782358
 In        31.4896095882       28.4045376112       40.5672923401
 As        39.1147937150       36.2173883016       11.8399899093
 As        42.0423698130       26.9010878573       24.1561585358
 As        42.0983963427       26.8801170117       30.0264012583
 As        42.1167780992       26.9003504024       35.9577015142
 Cl        41.9996877622       26.5391809417       41.9989422652
 In        28.7340733148       10.3522410926       43.4097536793
 In        34.5944491937       37.5533464722       34.6045545586
 In        31.5019079103       19.5006498487       43.2498831193
 In        34.6025977306       19.5104423878       40.3146673061
 As        42.2267557992       30.3024301256        8.7463452619
 As        41.9020984990       30.0560407313       14.9800982392
 As        41.9163128618       29.9784788764       21.1047201774
 As        42.0486523190       30.0253232420       26.8829844354
 In        34.5945967538       19.4159791572       16.4062646207
 As        29.9164303322       18.0459776011        8.8651914176
 As        42.2003297399       29.9215789003       32.9688088863
 Cl        42.2168268737       29.5738531608       38.8127339957
 As        35.9966302265       26.9427936378       11.9814510252
 Cl        44.8200941787       27.2239220990       15.1988424130
 As        42.1609309558       33.3569493832       11.6933738737
 Cl        45.6284881274       32.2920775825       32.1785277558
 Cl        41.2169676191       45.3901355154       23.2931217131
 As        41.7837583021       32.9704091434       18.0698894141
 As        42.0208933031       32.8815997537       24.0896107090
 As        42.1454365309       32.9407827669       29.9476539681
 Cl        42.2561166174       32.7237707009       35.7088269702
 Cl        29.1558777206       15.7508799348        5.3789650894
 Zn        31.4246916718       31.4166442173        7.5949727604
 In        25.4836123021       40.4906243173       10.4341698410
 In        40.4786789710       25.5433822544       22.5992679030
 In        34.2872221268       22.6758326532        7.3406197630
 Cl        41.8573642133       35.8605341182       15.1971533301
 As        41.8956296344       36.0226706247       21.0104487953
 As        42.0996343930       35.9721872735       27.0168705655
 As        38.9470298135       36.0566833147       17.9784880950
 Cl        42.2194086291       35.8065227091       32.5865019590
 In        25.4607382920       40.5517719638       16.4795294770
 In        28.7230121470       40.5609626686        7.5842192233
 In        34.5219536981       22.4334133266       13.4449936794
 As        42.1668128734       39.2850599943       17.6793990478
 As        38.9969702025       36.0280055951       24.0467631395
 As        42.0307557399       39.0440007084       23.9693932379
 Cl        42.1383476286       38.9152609757       29.5393614624
 In        25.4713302017       40.4803105423       22.5107344454
 As        39.0626491082       36.0567340402       30.0629857217
 Cl        35.7435801639       27.2434771649        6.1980171986
 In        37.8638687614       40.3209952918       16.5676563747
 In        34.5242760997       22.4420005024       19.4975256790
 As        42.2054967962       42.2648296975       20.6871328161
 Zn        43.4069168806       19.5661468509       31.4333392315
 In        34.5128096657       22.5080500469       25.4708570339
 Cl        41.8939839267       42.1062671024       26.5852106339
 As        35.9824758825       26.9248844279       18.0130319677
 In        43.0854530490       19.3362581227       37.5493788385
 In        34.5178552189       22.5288993389       31.4991125145
 In        31.4943208391       31.4196708329       13.6049763568
 As        33.0340973668       39.1050449608       33.0682681432
 In        40.6328680235       31.6631206380       10.2843827826
 In        40.3112397189       31.4339280972       16.4749508014
 Cl        42.2788214627       15.3174523936       18.3640149733
 As        39.1210934393       11.8924446978       30.1030312934
 As        35.9052981324       29.9681749270        9.0502878537
 As        42.1350552155       14.9972089468       24.0201544251
 As        39.1793299198       11.8198676688       36.2505757996
 As        35.9840646802       29.9581109591       15.0197189950
 In        28.3904804291       34.2867760428       43.6638261542
 As        41.9360901148       14.9974206145       30.0336754088
 Cl        32.6179043091       39.0512429298       39.0108168894
 As        35.9014835186       29.9490104865       21.0539482155
 In        37.5421169291       34.5877802215       28.5702304869
 Cl        29.6549580156       21.2550150248        6.2000467831
 In        37.4577108948       22.4457406316       10.3548817928
 As        36.0089058777       29.9847469334       27.0575871073
 In        31.4940711660       31.4301384735       19.5059887341
 As        30.0025296882       20.9643737825       11.9791418654
 As        30.0309545803       20.9423175898       17.9895568445
 In        31.5045157053       19.5003725521       37.3781974995
 As        36.0801584233       30.0660352265       33.0540355747
 In        31.5007575838       31.4954293214       25.6030184668
 As        29.9768763320       20.9895697736       24.0179340612
 As        29.9889082819       21.0058627077       29.9920776971
 As        29.9761076995       21.0118987422       35.9394659570
 As        36.0651540420       30.0088509726       39.1498565173
 In        31.5808812443       31.5705479186       31.5796910796
 As        29.9772609471       21.0313882934       41.9139976113
 In        28.5593067823       13.4578266958       10.4294268541
 In        28.4772314244       40.4075531011       13.3768858515
 As        29.9747264389       24.1089485727        8.9619276108
 Cl        35.1873809102       29.1410637237       45.6281011586
 In        25.4548155310       40.4720382920       28.4066771551
 As        30.0032563145       23.9906710736       15.0265074253
 As        30.0031778749       23.9651659957       21.0255307067
 As        29.9945146563       23.9920383447       27.0091216757
 As        29.9963739056       24.0187076566       32.9783124685
 As        30.0030121595       23.9965884657       38.9487169966
 In        34.5868856147       22.5234589530       37.4553279128
 Cl        29.9997262654       23.9031004276       44.7401682870
 Cl        29.9099612256       27.0010304748        6.3047201163
 As        29.9455351813       26.9849085228       12.0320739112
 As        29.9703327195       26.9642279050       18.0621869177
 As        29.9899052999       26.9745383116       24.0261607370
 As        29.9810415524       26.9827498425       30.0103161274
 As        30.0540929940       27.0234249825       36.0012282175
 As        30.0171882768       26.8091240638       42.0518743962
 In        28.5626865532       13.3744789998       16.4795464396
 In        28.4023460234       40.3981344214       19.4262761032
 As        30.0225101244       30.0293616485        8.9777177896
 As        29.9802649651       29.9322207648       15.0805178399
 In        34.5222140404       16.4794086999       31.4276579356
 As        29.9900661903       29.9805171078       21.0411065562
 As        29.9996178339       29.9676384720       27.0459325076
 As        30.0490449070       30.0332071880       33.0400399862
 As        30.0349367442       29.9710668421       39.0600791923
 Cl        29.7288765370       29.6719447244       44.8432859519
 As        33.3681954621       39.1756960957        8.7866465422
 In        28.4051129813       40.4770332276       25.4550532129
 Cl        30.0923706166       32.8753195317        6.2859518848
 As        29.9884390549       32.9410915001       12.1066772471
 As        29.9961575192       32.9548185507       18.0170873674
 As        30.0010230111       32.9607508272       24.0460536693
 Cl        32.6713892258       11.9534786176       12.0202324640
 As        39.2582888625        8.8012432857       33.3492123208
 As        30.0587264271       33.0152577401       30.0334139586
 As        30.0527816102       33.0339766833       36.0774979132
 As        29.9326399574       32.8542048072       42.1659962283
 As        33.0339268855       11.7996074526       17.9740795754
 In        43.2507595292       34.4357939998       16.6336919418
 As        39.1163773936       20.8663922690       39.0497044767
 In        28.5647972868       13.4593881546       22.4433044134
 In        28.5498572877       40.5565056790       31.5103463087
 As        33.0042787107       11.9197856424       24.0043386319
 In        34.3631393580       43.2548180107       16.5621053128
 Cl        38.8500702592       20.8217439726       44.6248610067
 As        30.0473279352       35.9414715143        9.0908001970
 As        32.9841079143       12.0414743277       29.9723978328
 In        34.4467215706       22.4363201971       43.2471506027
 Cl        38.2601779929       24.7948282844        5.4465213452
 As        39.0179764303       23.9184927375       11.9230520436
 As        33.0641384235       11.9830065548       35.9842461251
 In        43.3380597628       40.6573319652       22.3552451659
 As        39.0579181988       24.0011373026       17.9807428430
 As        38.9654135541       24.0193433002       24.0229237939
 Cl        26.5325906563        8.9713467355        9.0370492008
 As        39.0063560759       24.0158436080       29.9577994700
 As        39.0199695118       24.0320735668       36.0074915739
 In        34.3550000522        7.7490846111       34.3552366210
 In        43.5861326319       22.5220919746       16.5544309257
 In        28.5665875160       40.5630747890       37.5418652273
 In        31.5816136676       31.5699081522       37.6209180580
 In        31.4200013628       31.3335631500       43.6601190057
 In        40.6388563776       16.4694853873       19.4979459321
 Cl        41.9152708791       15.1686516157       35.7813849685
 Cl        39.0913183584       15.1851289223       15.1318949875
 Cl        35.9446349422       33.1535414182        6.3920226798
 In        37.5447360187       28.4753190775       40.6462040570
 As        33.3817518609       42.1649534330       11.7163291045
 As        39.0722831606       14.9758852944       20.9735309276
 As        35.9803271598       32.9737186490       11.9912032191
 In        25.5487444589       40.4847176057       34.5874352705
 As        32.9041036828       41.8160902742       18.0257673587
 In        31.4985102721       34.4364993276       10.6146856217
 As        39.0452894956       14.9582450548       26.9495725069
 As        36.0028003851       32.9917162293       18.0290928602
 Cl        32.7513372828        6.2269472463       24.3205847532
 As        29.9531462925       35.9567792413       15.0047219230
 In        37.5551864219       22.4309711956       16.4685947426
 As        39.0298826222       14.9268791954       33.0099189221
 As        35.9963405705       32.9734633795       24.0726143471
 As        27.0568612477       32.9259309185        9.0751858543
 As        29.9601462805       35.9269302927       21.0326747126
 As        30.0009379402       35.9779256843       27.0419913062
 In        25.5312165082       40.4971279660       40.5655247619
 In        37.5441275319       40.4825521052       22.5291125936
 As        36.0494209312       33.0310232158       30.0473023796
 As        26.9474367305       32.9607673308       15.0686664188
 As        30.0444730204       36.0337454155       33.0284382897
 As        30.0523913832       36.0043838326       39.1485736291
 Cl        29.1524728638       35.1852151075       45.6225261278
 In        31.4863852533       34.4470954254       16.4851598969
 As        36.0989369532       33.0349578591       36.1267489243
 As        32.9399734256       41.9695650604       23.9238953815
 Cl        30.1743107985       38.7151783118        6.3564975075
 As        30.1144049991       39.0496071321       11.8804171552
 As        29.9538577178       38.9075430364       18.0012642643
 As        29.9478598717       38.9556844465       24.0339742266
 In        31.4940213091       34.4423648574       22.5265213217
 In        34.4469415537       25.4730885153       10.4395911325
 In        37.6303530916       34.5265918263       34.6007243678
 As        30.0386654095       39.0542401459       30.0183558918
 As        30.0487374417       39.0628951217       36.0346474927
 Cl        29.4802542118       38.9046362265       42.2410409229
 In        28.4883992727       13.5388238411       28.4789905163
 In        28.6405413295       34.3655222153        7.6634990381
 In        31.5751411487       34.5266496604       28.5603145132
 In        43.2483595694       34.4462844805       22.5216856780
 As        30.3512819486       42.1828535074        8.7327779614
 As        30.0100977022       41.9114916786       14.9663704524
 As        29.9014770428       41.9334651997       21.0090756936
 As        29.9211610097       42.0051826382       26.9143680858
 As        29.9360406928       42.1802636382       32.9552592494
 Cl        29.5526477215       42.2294758274       38.7908728439
 In        31.5819423429       34.5893794785       34.6016672849
 Cl        38.9867906275       35.9008181069       35.8471613904
 As        35.9736094501       26.9874664347       24.0175538740
 In        34.4290334465       40.3064313685       13.1320894317
 Cl        30.1682473497       44.5891831609       12.1741628531
 Cl        30.0674001881       44.7402221839       17.9929739711
 Cl        29.9066589392       44.7906076940       23.8773503753
 As        33.4208109438       11.6901282390       42.1585239737
 In        31.5022650778       34.4466670203       40.7149774564
 Cl        44.6508529101       20.8122469609       38.7288786320
 Cl        29.6794976224       44.8621041378       29.7011120152
 Cl        29.1302713544       45.6759382057       35.2028529373
 Cl        27.6987045867        9.6958110936       45.3606267564
 As        26.9749637112       32.9676957845       21.0124386991
 In        34.5872815409       16.4746593622       37.4492008485
 As        27.0286982438       32.9369465410       27.0300813519
 In        37.5374884211       40.6383416489       28.5594635863
 In        34.5140037755       40.3188204425       19.5069602929
 As        27.0859338722       32.9957230923       33.0249451964
 In        31.4342288809       28.4756041304       10.5237742668
 In        25.5457758647       43.4997903023       13.4487744460
 As        27.0271830048       32.9651122462       39.0568834588
 In        40.3953468732       31.5721307130       22.6003228118
 In        34.5151683878       25.3844838989       16.4844041170
 In        31.4988895129       28.4040546916       16.5530728154
 In        31.4977704972       28.4769661314       22.5286098213
 Cl        32.6141760059       15.2657339898        8.7517484774
 As        32.9353392138       42.1541331091       29.9552722923
 As        39.0606701195       23.8899920769       42.0662362508
 Zn        25.5429340373       43.4180234441       19.5732325622
 In        31.5092702420       28.4881331914       28.5631208400
 As        33.0836294315       14.8754892884       14.9570480745
 Cl        44.5821147455       30.1340686587       12.2174042197
 In        28.4115825473       13.4729347084       34.5174457509
 In        40.5673328745       31.4895494350       28.4856964949
 Cl        44.7319116929       30.0343580980       23.9649118108
 As        33.0457330531       14.9239507215       20.9447526682
 In        34.5163206443       25.4558368039       22.5133704171
 In        28.7188930319       43.3364018869       10.3470226472
 As        39.0082497375       27.0590818804        8.9249066116
 Cl        32.5627719305       42.3279998829       35.6821710475
 In        28.4870647221       13.3736752121       40.4071056012
 As        39.0117636363       26.9754754757       14.9590930547
 As        38.9696225821       26.9752118662       21.0578479927
 In        43.4126917250       22.6741776524       22.6746815419
 In        43.2545882230       22.5967460431       28.5577356155
 In        40.5449879144       25.5271043830       28.4889134538
 In        34.5188158623       40.6403049650       31.5768988907
 In        43.3265964179       22.4327208073       34.3518951645
 In        37.5345087162       22.4469449558       22.5071896026
 As        39.2352855126       14.7132509407       39.1285055765
 Cl        35.6520605672       32.6215364754       42.3292365414
 As        36.0371254135       24.0135718820       38.9977489126
 In        34.5200777647       34.5202971854       25.5460078344
 Zn        25.4617543759       43.4832902854       25.4606841051
 In        28.4765247115       37.4488250390       22.5138800415
 In        34.5989373241       34.5886268377       31.5805808108
 As        27.0467007942       20.9572192309       21.0249553127
 In        43.0192468695       31.6642519966       13.3002501208
 In        34.5127433094       25.5334244140       28.5034022886
 Cl        35.2621276039        5.3801069536       21.8343430082
 Cl         5.6388207185        9.6112673963       23.3516561050
 In        25.5406070888       19.4883171422       13.5338340808
 Cl        39.0181981347       18.3248344631       12.0045207054
 Cl        35.7482475724       35.7525683624        9.1283397719
 Cl        35.8227745994        6.2153513374       27.2838607037
 Cl         6.3334505435       12.1812453672       20.8910291429
 Cl         5.4201928997       12.6666491956       26.2862207442
 In        25.5402202912       19.4899049235       19.5105818457
 As        36.0061054117       35.9982798529       14.9703254129
 Cl        36.0190571534        6.4015889417       33.2310213263
 Cl         6.3893463268       14.9890136524       17.8446925072
 Cl         6.1970285376       15.1525300632       23.7944901982
 Cl         5.3752393911       15.7752544532       29.1871554245
 In        25.5288504782       19.4938075271       25.5288819379
 As        35.9692984915       35.9684583343       21.0122649173
 Cl        42.2084344351       12.2511786507       21.3583198266
 Cl         6.4328246800       17.8097302059       15.0430694059
 Cl         6.2266802638       18.0145567996       20.9155708855
 Cl         6.2375627126       18.2669706149       26.7023165062
 Cl         5.3390163140       18.8083610265       32.2123899147
 In        25.4693734704       19.4261631491       31.5018590274
 In        25.3804424553       43.3354273208       31.4152679663
 Cl         6.3960700749       20.8168059305       12.2503573330
 Cl         6.2530887637       20.9079396969       18.0599910604
 Cl         6.2553458826       20.9923751766       23.9636948901
 Cl         6.1769680806       21.2853427243       29.7391765229
 Cl         5.3690444267       21.8169653387       35.2866626160
 In        25.4620003696       19.4212840190       37.4721274058
 In        43.2492551900       31.4981414049       19.5718096783
 Cl         5.6415169832       23.2932978201        9.6916557707
 Cl         6.2174739575       23.7845988522       15.2232811357
 Cl         6.2650830298       23.9200733308       21.0684434792
 Cl         6.2414980884       24.1350222698       26.8953317607
 Cl         6.2207136655       24.2999030452       32.7750118054
 Cl         5.4300069700       24.7621415417       38.3373892297
 In        25.6186761597       19.5084074544       43.3367879446
 As        26.9906523300       21.0105299844       27.0195757226
 Cl         5.4938474575       26.2720312537       12.7344092657
 Cl         6.1690452336       26.7566317497       18.2440377968
 Cl         6.2340744988       26.8650698484       24.1446930513
 Cl         6.2381660125       27.0505997841       30.0176328599
 Cl         6.2249733449       27.2447320175       35.8485302682
 Cl         5.6332288263       27.6774216473       41.3792164541
 As        32.9956118330       14.9875782317       26.9604676999
 As        26.9609078115       20.9824372461       32.9699199202
 Cl         5.4050141056       29.2203741373       15.7756558892
 Cl         6.1255942231       29.6934794367       21.3290479829
 Cl         6.2481203582       29.9383357041       27.1185812952
 Cl         6.2556423683       30.0881019662       33.0060572762
 Cl         6.3570941555       30.1617511312       38.8271909481
 As        33.0388749158       14.9943249704       32.9803485903
 As        26.9710648254       20.9924032258       38.9424791207
 Cl         5.3225332034       32.1684548770       18.9042043222
 Cl         6.1725044352       32.7653429310       24.3055485083
 Cl         6.2574945167       32.9757421346       30.1266038212
 Cl         6.3846658669       33.1956277684       36.0335870687
 As        33.0806440905       14.9345366904       38.9405108628
 As        32.8671693594        8.9538645785       26.9623830049
 Cl        27.1010265031       21.0001046346       44.7540381780
 Cl         5.4043783621       35.2093949297       21.8411488243
 Cl         6.2220390523       35.8203019466       27.2458999092
 Cl         6.4422077857       35.9966101175       33.2285874744
 Cl        33.1960618079       14.9772786688       44.5841107704
 In        37.5373744680        7.4173302112       25.6222396821
 Cl        26.8453346273       24.0714901204        6.2907536879
 Cl         5.4856518627       38.2866912760       24.7604602098
 Cl         6.4273116787       38.8062473444       30.2128519670
 Cl        32.1179808377       18.7716743270        5.3585594328
 In        37.6293638078        7.9197093571       31.6601624208
 As        38.9922304298       26.9999666280       27.0227012526
 As        27.0215286526       23.9665900287       12.0603051454
 Cl         5.7052426181       41.3513515953       27.7297860463
 As        33.0071310893       17.9564683429       11.8834470441
 In        34.4439318492       43.3346126897       22.3646747723
 As        39.0674737159       27.0151268139       32.9857994098
 As        27.0147629223       23.9537120854       18.0591943024
 As        33.0703822577       17.9258409133       17.9341643654
 In        34.5328348201       25.5404266129       34.5184714307
 As        39.0769018636       27.0153798143       39.0769815854
 Cl        38.3036263079       26.1705993261       45.5759772111
 As        33.0203028136       17.9968332050       23.9714152733
 Cl        33.1702364251       44.5909321363       14.9638553281
 Cl        38.7764842254       30.1253970988        6.3751968711
 As        39.0647501989       30.0885662480       11.8985332077
 In        34.5252603978       25.4612958159       40.5615673022
 In        31.6693765971       37.5556286715        7.9139564008
 As        39.1642218360       39.1322231872       14.7304185410
 Cl        44.6998148665       30.1246073897       18.0412335403
 In        34.4398626327       10.6199017143       37.7916311563
 Cl        42.2797481714       18.3930033634       15.3266011061
 As        39.0926411757       17.9332676387       17.9829934535
 As        35.9874545746       36.0517085717       27.0543831327
 Cl        35.7242811063        8.7154607859       18.3256634474
 In        31.4256228883       37.4582998552       13.4619746258
 In        31.4375614329       37.3845020051       19.5034012291
 As        39.0598839762       18.0038963630       23.9742561955
 As        36.0954437922       36.0586481140       33.0814760183
 As        35.9943010102        8.8575251942       24.1003775406
 As        26.8833669334        8.8831906153       21.0246226326
 Cl        32.9222985541       44.7737057374       20.8766911066
 As        38.9794732905       18.0134021330       29.9393361223
 Cl        35.8052123542       35.9045683209       39.0727840005
 As        35.9895797764        9.0582678376       30.0269192316
 In         7.5835090293       10.3482685651       22.3588838235
 As        29.9628403379       12.0513143249       32.9704488152
 In        40.7121088121       31.4962635145       34.5252789332
 Cl        32.7358479743       44.8848942047       26.7258057758
 In        25.4616216887       43.5100689335       37.5508650111
 Cl        35.8114308271        9.1060737337       35.8350722806
 In         7.9158163076       13.3058882819       19.4153279540
 In         7.4208160989       13.4588705706       25.5270517724
 In        25.5326931590       22.5064017356       10.5390058593
 In        28.4842304782       10.3626627139       19.5719123244
 Cl        44.7822905234       27.1434830393       21.0672154650
 Cl        32.1262801249       45.6955468360       32.1631194729
 In         7.7441452119       16.5610876889       16.6370048209
 In         7.6825191256       16.5557435378       22.5207890160
 In         7.3368553109       16.6393828983       28.3939827099
 In        25.5389327210       22.4427567963       16.5603365427
 In        31.4978757891       37.4618757973       25.5391889913
 In        37.4718597420       22.5253216420       28.4858911192
 In        40.5495307006       25.4608425550       16.4098774156
 In         7.9829567701       19.3325512329       13.3755916167
 In         7.6853580805       19.5032783110       19.5758786632
 Zn         7.5859222597       19.5824488401       25.4607261434
 In         7.3351614681       19.5818078757       31.4186064262
 In        25.5373003637       22.4372609239       22.5216372777
 In        31.5842589814       37.5589809170       31.5829820186
 In        28.4945056344       10.5153988708       25.4680012513
 In         7.5903843809       22.2721776603       10.3661063147
 In         7.6735753785       22.4241182062       16.5512031064
 In         7.6748003675       22.5102454424       22.6676670990
 In         7.6696016364       22.6646760622       28.3931161130
 In         7.3326159284       22.6105031076       34.4311094887
 In        25.4712743476       22.5073008395       28.4907871607
 In        31.5789010138       37.5421508237       37.6211647787
 In        28.5637723200       10.5219682121       31.4216704928
 Cl        26.2154884950       12.6421355607        5.5039909509
 In         7.4988065455       25.4546058710       13.4589710215
 In         7.6632444170       25.4434192988       19.5863166882
 Zn         7.5772954765       25.4618937187       25.5409169415
 Zn         7.5211780020       25.5421183772       31.4235366921
 In         7.4221524664       25.5414786801       37.5409305605
 In        25.4677842829       22.4431076431       34.5117122975
 As        27.0785154951        9.0167505524       32.9680559457
 In        37.5324884886       22.5281744303       34.5158627874
 As        27.0635964575       11.9268318879       11.9715058582
 In         7.4168346551       28.4730659498       16.5523281049
 In         7.5876686685       28.3298734738       22.6815118758
 In         7.6778958440       28.3392531264       28.4999802237
 In         7.7501557883       28.4848306160       34.4454639345
 In         7.5892676375       28.6515206476       40.6529331394
 As        32.9977875779       18.0013572706       29.9704400758
 Cl        26.6865447240       32.6794530443       44.7653472422
 As        27.0215685587       11.9087038480       18.0382855804
 In         7.3421587186       31.4198234760       19.6573594898
 In         7.6669647016       31.4207977729       25.6271225791
 In         7.6866928075       31.4261188132       31.4968856512
 In         7.9183304373       31.6591422103       37.7001172538
 As        33.0270524139       17.9700816413       35.9559489421
 In        28.4105232932       34.4471878807       13.5392821056