    1259
 i =       77, E =    -32484.3452216155
 Cl        18.4397776249       43.0477862413       18.6975616193
 Cl        24.4762801638       42.8345056832       24.4670098452
 Se        39.9700092845       15.2391328055       24.5568717273
 Cl        42.8840025537       18.5422847443       24.5575891848
 Hg        32.3963215946       19.7769653029       41.2422080056
 Se        18.3317927231       33.7542143344       27.5630440277
 Se        21.3811998623       36.8466538915       27.5892392064
 Se        24.4311895323       39.9552144764       27.5680606890
 Cl        27.5020920098       42.7827968758       27.4909971353
 Se        18.3028582321       30.6849977831       18.2746487214
 Se        33.4327116769       40.1804087268       30.7442791948
 Se         9.0579935834       24.3165872268       15.1756676944
 Se        21.3970956333       30.6875046931       21.3770860692
 Hg        35.5236055149       19.7821419285       13.6832706881
 Se        21.3940826260       33.7741163949       18.2525842673
 Hg        32.4163864888       41.3466283494       19.8160981483
 Se        24.4909023937       15.2350876364       27.5972484384
 Hg         8.0260492023       28.7609667983       14.1769384402
 Se        30.7289316411       12.1682343229       18.3219184814
 Hg        13.9663786341       35.0340518031       13.9507772044
 Se        33.8819095637       15.2406738712       18.3158601377
 Hg        20.2048133959       40.9497757717       14.1476942863
 Se        40.6625725510       29.1855638631       13.9462919951
 Se        21.4358184870       24.4921434242       15.2306538607
 Cl         6.1383523643       27.4740896733       21.5162626077
 Se         9.0690865078       30.6643826397       21.4013572360
 Se        24.5095861402       36.8698153071       18.2867692734
 Se        15.3872869543       12.0610387316       34.0499069212
 Se        18.3170110818       15.2371223494       33.8737384204
 Se        21.4259927510       18.3050207641       33.8040517657
 Se        24.4964714422       21.4361579379       33.7658371363
 Se        27.6026755360       24.5348810196       33.7674867787
 Se        30.7201949338       27.6294294374       33.7876926687
 Se        33.8135547887       30.7709447498       33.8091171800
 Se        27.5986977975       27.6173454815       36.8704321887
 Hg        40.9392280778       26.7302731216       14.4880609014
 Hg         7.7008476983       25.7231242961       16.9117899994
 Hg        10.6221739397       29.1598222140       16.7221438264
 Hg        13.6490988570       32.2426109428       16.5981329031
 Hg        16.7440947446       35.3304365509       16.6011002348
 Hg        19.8160201724       38.3649398369       16.7064108175
 Hg        23.2522840780       41.2858190106       16.8878981241
 Hg        25.6533348154        7.1271457533       12.7305459260
 Se        15.2254696888       18.2853619966       27.6183058432
 Se        36.9571283846       34.0399770465       33.5621791422
 Cl        24.4500258773       42.8724747569       30.4512945692
 Se         8.7666704056       21.6537374489       36.8224682634
 Se        11.9813669079       24.6766164601       37.0454938661
 Se        15.2373335034       27.6165805284       36.7894672341
 Se        18.1428257355       30.8523388188       36.9360368341
 Hg        41.0015861407       14.1569117896       20.1519924446
 Cl        21.5894905554       15.3886008915       42.8368612540
 Cl        24.5537006077       18.5422295359       42.8776562596
 Se        30.6939487499       30.7300727130       36.8284415381
 Hg        22.9383311387       32.2273397802       19.8130479315
 Hg         7.6201995428       22.7804083308       19.8163667319
 Hg        10.5985176691       25.9985153437       19.8621994094
 Hg        13.7093003933       29.1012095596       19.8506051084
 Hg        16.7371608344       32.2534321684       19.7730595254
 Hg        19.8821979304       35.2846953092       19.8428065223
 Hg        22.9722736874       38.4017350321       19.8431940203
 Hg        26.1902737798       41.3948544883       19.7792182316
 Se        18.3101705788       36.8221493646       18.2614065367
 Se        18.3173656511       21.3984499897       27.6077023297
 Hg        35.4879544965       10.8310321388       22.9944603957
 Cl        27.7101315452       21.3417536180       42.8108557363
 Cl        30.5354803735       24.5585124446       42.7940970824
 Cl        33.9636112533       27.2112104077       42.6430043977
 Hg         7.7640225057       32.4131521033       29.2129434561
 Hg        34.5459661778       22.2726460254       41.3364114191
 Hg        32.4465598558       13.5921105895       11.3625576927
 Hg        10.8436734329       13.7230631814       19.6574109060
 Se        18.1939232042       12.0826136532       36.7831170713
 Hg        10.8400247488       35.2667230876       29.3397388174
 Hg         7.6232827287       19.7695389059       22.8369126572
 Hg        10.6089410231       22.9240865818       22.9362875762
 Hg        13.6799659231       26.0301627586       22.9485307608
 Hg        16.7707878275       29.1525664675       22.9190555989
 Hg        19.8377124974       32.2268374777       22.9142386924
 Hg        22.9538752360       35.3138013224       22.9319244728
 Hg        26.0451517760       38.3900131719       22.8953712446
 Hg        29.1709333072       41.3609972227       22.7989647623
 Se        21.4161571482       39.9627402467       18.2740994351
 Se        21.4766563350       15.1742323837       36.9946481407
 Se        24.5319494780       18.3275115330       36.8270031118
 Se        27.6212343287       21.4067334640       36.8474585452
 Se        30.7022411077       24.5005628148       36.8678489046
 Se        33.8094395837       27.6177492212       36.9190873576
 Se        37.0124602133       30.5482646736       36.9842588104
 Se        24.4968058469       12.1318911424       18.3110838774
 Hg        28.9167110634       14.0224465918        8.2072414294
 Se        21.3847353369       33.7848247327       36.7305920784
 Hg        13.7488344254       38.1671430005       29.3444337023
 Hg         7.7409708205       16.8770619276       25.8215964566
 Hg        10.6266617655       19.8750651633       26.0126924319
 Hg        13.6859074520       22.9608537877       26.0393544239
 Hg        16.7710817232       26.0364529406       26.0280844877
 Hg        19.8577326299       29.1414079423       26.0094572127
 Hg        22.9520125417       32.2312052102       26.0124734971
 Hg        26.0329373876       35.3436948456       26.0212418897
 Hg        29.1293581805       38.3863534102       25.9492999600
 Hg        32.1239845918       41.5736249502       25.8034145929
 Hg        38.8000604411       19.5923635227       11.6918773632
 Se        24.3200531184       37.0511151600       37.0167575249
 Se        27.4566376761       40.3199270539       36.8784982994
 Se        21.3791650391       15.2147082026       12.2430246254
 Cl         5.9579198326       18.4169734702       30.2469497413
 Se        33.5997336849       34.0512269478       36.9392566432
 Hg        16.6072023834       41.2416408255       29.2187055336
 Se        21.3833754466       36.7953375178       33.7571798945
 Se        24.4530128206       39.9583475331       33.7536339790
 Se        21.5480749730       18.3028905018       39.9525650379
 Hg         8.2638745506       14.0047698388       28.9406104761
 Hg        10.6233090462       16.7673410773       29.2318895836
 Hg        13.7202717446       19.8880262971       29.1329768448
 Hg        16.7751769288       22.9424290849       29.1640865222
 Hg        19.8628290431       26.0301294987       29.1338707234
 Hg        22.9730744306       29.1468911253       29.1306023368
 Hg        26.0424890950       32.2442724220       29.1433717304
 Hg        29.1035375004       35.3199567634       29.0934347948
 Hg        32.2618895908       38.4458862428       29.1999442589
 Hg        34.8522208683       40.9883952735       28.8438305440
 Cl        24.4727108798       42.8088599563       18.4840004929
 Se        21.2966667747       39.8922407450       30.7139814807
 Se        21.4143777836       24.4931294332       27.5867803371
 Se         9.0399629123       21.4168176299       30.6936253457
 Se        12.1362555939       24.5088915352       30.6920429181
 Se        15.2468726270       27.5780165828       30.6620802530
 Se        18.3672641226       30.6287632698       30.6161570014
 Se        21.4095439910       33.7517879454       30.6570313187
 Hg        13.6672828144       16.9079890998       19.7975052029
 Hg        16.8030765621       19.8849658753       19.8906251175
 Hg        11.2916981247       13.6641688474       32.4076280532
 Hg        13.6768970594       16.7491823797       32.3786164050
 Hg        16.7756160488       19.8325266288       32.2870542425
 Hg        19.8559326141       22.9627218727       32.2366844579
 Hg        22.9744311606       26.0561265734       32.2253186455
 Hg        26.0638659649       29.1825694532       32.2283873938
 Hg        29.1752088677       32.3006542077       32.2325420218
 Hg        32.2906057842       35.5115459732       32.2788591730
 Hg        35.1761488333       38.5452225992       31.9547749207
 Se        21.4209891375       12.1252253100       27.6063627535
 Se        21.5521813079       12.1136807220       40.3201569130
 Se        24.5567282527       15.2383845808       39.9640269707
 Se        27.7092323051       18.2825309796       39.8962502182
 Se        30.7018416978       21.2971581459       39.8760358920
 Se        33.8259880413       24.3578780121       39.9378805625
 Se        36.8789627420       27.3629379871       40.2234878477
 Se        18.3100667452       27.5928299198       21.3822007333
 Hg        13.3724122425       26.0101389131       10.5531568987
 Se        36.8326240822       18.3253671899       24.5311669373
 Hg        19.8672928963       22.9621307566       19.8551527404
 Hg        13.9391864779       13.9807764643       35.0287172130
 Hg        16.7314865454       16.7189474781       35.5064874885
 Hg        19.9061635989       19.9016418438       35.3160427148
 Hg        22.9713179715       22.9737748955       35.3421800921
 Hg        26.0482216345       26.0633052519       35.3137195139
 Hg        29.1212803171       29.1510717886       35.2887332451
 Hg        32.2586873100       32.3964002906       35.3432363951
 Hg        35.0780602760       35.0263754410       35.0447526365
 Hg        16.7484109534       29.1761070778       10.5384280074
 Cl        27.4131459777       42.8354985204       33.6044425657
 Se        12.0835690073       33.7939804797       21.3752661859
 Hg        17.4608715693        7.6244020625       31.6830840440
 Hg        32.2896855093       19.8013075580       10.6251724122
 Se        24.5082429504       27.5971480085       27.5805851188
 Se        24.4743101951       36.8237995876       30.6667531671
 Se        27.4628358437       39.9480112915       30.6914137343
 Cl        37.4899659061       34.1913172422       37.4140915885
 Se        24.5014894411       18.2875483911       12.1330902286
 Se        27.6190632010       21.3902064881       12.1272912553
 Hg        22.9505154587       26.0437833290       19.8442401876
 Hg        17.0564137857       13.8298675509       38.5408892456
 Hg        19.8071996667       16.7447362500       38.4471010127
 Hg        23.0450685509       19.8772444333       38.3894667263
 Hg        26.0939774924       22.9664208529       38.3936525700
 Hg        29.1333090950       26.0372601166       38.3865431778
 Hg        32.2384891852       29.2397133263       38.3909055685
 Hg        35.4188615371       32.4475983063       37.6029012175
 Hg        19.7948722628       32.2380420482       10.5394006039
 Se        30.7082180910       24.4982923434       12.1215137304
 Hg         7.7567000490       19.7309908291       16.6119374159
 Se        27.5745443585       18.3412888499       27.5714335688
 Hg         7.6862929041       14.4217481699       22.2929865134
 Hg        10.6831697403       16.7551546229       22.8489087707
 Hg        22.9691947720       35.6133296599       10.5468210232
 Hg        13.7187581498       19.8621596899       22.9648672000
 Hg        26.0280647724       29.1343141840       19.8499934902
 Se        30.6675586278       21.4440460996       27.5717665731
 Se        12.2329155496       12.2131742000       18.0381906368
 Se        15.3195235212       15.2990114958       18.3822479814
 Hg        29.1047002751       32.1981544637       19.8749564221
 Hg        20.1513226162       14.1553801164       40.9897469460
 Hg        23.1996867150       16.8820526088       41.5819024271
 Hg        26.2004127502       19.8460871041       41.3674235401
 Hg        29.2179568740       22.8455754214       41.4001185872
 Se        30.7383187270       15.2184535078       21.4027575261
 Se        33.8131613147       18.3054004755       21.4247657995
 Se        36.9048394081       21.4331403888       21.4374567980
 Se        39.9618315311       24.5680071809       21.4207111618
 Cl        42.8193938180       27.6979404637       21.3182858703
 Hg        32.1074476787       25.8225436852       41.2708808795
 Hg        34.9609037427       28.9099788230       40.8041191157
 Se        36.7604332999       21.3761984925       33.7756714180
 Se        18.3790384348       18.3555963359       18.3782879069
 Se        21.4451164016       21.4173052438       18.3370608436
 Hg        34.8410398207        8.0409579305       20.2144786925
 Cl        17.2907466944       11.8981181761       40.2831935406
 Cl        27.4663774345       15.9255849484       43.1206916226
 Cl        31.4989744446       17.4801127219       41.9048712716
 Cl        32.8985043417       21.4624581969       43.1768106386
 Cl        36.2434595758       23.6476558427       43.1044137018
 Se         9.0856768367       18.3113623863       27.5874605718
 Cl         7.1344438606       31.5354429594       31.5068692767
 Se        30.6886783871       27.6057206429       39.9378784986
 Se        21.4396582559        9.0327927860       30.7016338758
 Se        39.9373324294       27.5990656023       30.6905782801
 Cl        43.0612614251       30.2762074298       30.5680437912
 Se        18.2985327943       36.8643814766       24.4936605969
 Se        33.8228163120       37.1163731214       33.8092044101
 Se        24.4837448073       21.3493994334        9.0345813135
 Cl        31.5267364389        7.0911605531       31.5242533694
 Se        33.7574676130       33.8762552901       30.6816248349
 Se        12.2296399005       36.7786031448       30.9546045054
 Hg        10.6798666980       22.8138925849       16.7611242670
 Hg        13.6515301816       26.0283487269       16.7418402792
 Hg        16.7612158343       29.1586927392       16.6963712178
 Se        21.3655214120       39.9598917190       24.5113427008
 Cl         5.8382391262       21.4285892597       16.1043618945
 Hg        36.3982626207        7.1826777521       23.4646274235
 Hg        29.2696934262       38.1955983385       19.7595408859
 Se        36.9229047387       36.7833319289       30.8092987286
 Cl        17.5095113131       41.9000733045       31.5150841209
 Cl        42.8464010873       24.5230695432       24.5257136189
 Hg        19.8308520726       10.6178783462       32.2744265090
 Hg        19.7757184954       16.5905108645        7.7591541882
 Hg        22.8485396652       19.7637264055        7.5998439420
 Hg        26.0137064257       22.9834580303        7.6285644453
 Hg        29.2124065754       26.1719617854        7.5977823474
 Hg        32.3751476608       29.2437702356        7.7469545922
 Se        39.9367900952       24.3557164146       33.8308927549
 Hg        32.2779835265       10.6231835069       19.8321563166
 Hg        16.7736718082       22.9529357871       22.9584493571
 Se        24.5738681088       21.4269656745       39.9588990931
 Se        33.7725427660       24.5324386119       27.6012409836
 Se        24.5117348097       24.4841224909       18.3234153334
 Se        27.5724957955       27.5572733020       18.3320918069
 Se        30.6310484025       30.6214867969       18.3651049653
 Se        33.6872831707       33.6838709052       18.3795735496
 Se        36.7985250082       36.7270678434       17.9975454041
 Se         9.0628396006       24.6563164653       33.8204913636
 Hg        32.0917755867       35.3551887870       19.8033616427
 Hg        19.8581466479       26.0446232612       22.9380450818
 Hg        22.9636247521       13.6506480622       32.2573908131
 Hg        19.6440104997       13.7328881847       10.8370186971
 Hg        22.8483001197       16.7530020459       10.6716732089
 Hg        26.0390924183       19.8555214514       10.6132455751
 Hg        29.1535531817       22.9578411440       10.5923224532
 Hg        32.2457468920       26.1593475606       10.6709952338
 Hg        35.2081598138       29.3444066246       10.8381129667
 Se        12.2694617851       27.6067004956       33.7776252481
 Hg        35.5255955707       13.6822437909       19.7972535986
 Se         9.0144740216       18.1774659355       33.7179258186
 Se        12.1221557251       21.3932264614       33.8297460693
 Se        15.2086305258       24.4773166824       33.8039132339
 Se        24.5224722942       12.1315338156       30.7000435473
 Hg        22.9458805699       29.1374231838       22.9309139505
 Se        18.3358656707       27.5921173463       33.7451818082
 Se        21.4209190970       30.6730538389       33.7506146748
 Se        24.5221664358       33.8107543628       33.7924681950
 Hg        26.0275599213       32.2289001950       22.9417771949
 Se        33.6825306922       30.8769475262       39.9921797787
 Hg        26.0478030281       16.7398507974       32.2686349749
 Hg        19.6516613954       10.8257545122       13.7366184679
 Hg        23.0477395506       13.6074036729       13.6193904447
 Hg        26.0626384765       16.7540460500       13.6645877723
 Hg        29.1533098437       19.8710734153       13.7112632569
 Hg        32.2632439199       22.9452622576       13.6467317834
 Hg        35.4368919660       25.9211476451       13.6340128878
 Hg        38.1204429961       29.3986321355       13.7101433848
 Se        15.3210153746       30.6167951933       33.6864034645
 Se        12.0680380919       30.8481372801       30.8461525412
 Hg        29.1118421766       35.2723496348       22.9268682200
 Hg        32.2209007121       38.3281825934       22.9056146215
 Hg        34.5110793513       40.9349048567       22.2578558418
 Se        27.5355927880       36.9950471059       33.8171312316
 Hg        31.7162956287       17.4239484321        7.6390191357
 Cl         6.1840107689       24.4899279855       24.4997917846
 Hg        12.7317408269        7.1216972787       25.6387213508
 Cl         5.9434061453       23.5228726801       12.6618666833
 Se         8.7456948796       27.3222665660       12.1863271699
 Se        27.6073172298       30.7401776833       33.7785547706
 Hg        19.7793489572        7.7554210150       16.5934535301
 Hg        22.8492454594       10.6664041978       16.7740286688
 Hg        26.0623910240       13.6547103678       16.7709888536
 Hg        29.2240070285       16.7314622665       16.7427575091
 Hg        32.3050722287       19.8215241447       16.7663547872
 Hg        35.3801648809       22.9070670115       16.7181112056
 Hg        38.3343758801       26.0825361158       16.7834966783
 Hg        41.3552620863       29.1715201676       16.5833446464
 Hg        29.1146043612       19.9010133667       32.2002804088
 Se        12.0857370958       30.7917965531       12.2069057043
 Se        15.1940706879       33.7882840107       11.8694845264
 Hg        34.8471834389       20.1909408775        8.0408174244
 Hg        36.3635614832       23.4551563270        7.1701558243
 Hg        36.2794503942       25.6404014742       41.8629262787
 Cl        27.4916609012        6.1323421193       21.5182780377
 Se        30.7579711374       40.1807044776       33.4196608355
 Hg        29.2401301858       16.7537188293       10.6108508764
 Se        36.8767682649       27.6122848234       27.5957672797
 Se         8.8184636692       12.0996091485       27.3798445082
 Hg         7.1421338981       36.2772288137       23.3449428509
 Hg        22.8344197639        7.6115625914       19.8012603996
 Hg        26.0237730930       10.6113378185       19.8856930630
 Hg        29.1472655573       13.7070012080       19.8933044825
 Hg        32.3046159232       16.7598289061       19.8343365105
 Hg        35.3287557880       19.8979888397       19.9028955030
 Hg        38.3927210525       23.0357853982       19.8713678865
 Hg        41.3675216166       26.1872605578       19.8325288114
 Se        27.5880320006       15.2470259697       30.6719808566
 Hg        12.7274628633       41.8463829204       23.3418495456
 Se        27.6100264573       12.1258531214       21.4174478665
 Hg        19.8303916836       32.2224156606       16.6929943823
 Hg        35.2887757949       38.1140857038       19.5903458747
 Se        12.1175619498       21.5456793413       40.3174179456
 Se        15.2400389527       24.5422890902       39.9525525349
 Se        18.2733648647       27.7026165331       39.8902507828
 Se        21.2782141812       30.7059489241       39.8697439983
 Hg        22.9567168045       35.3438788415       16.7326102417
 Hg        26.1705438862       38.3178575380       16.7484236169
 Se        12.0982404791       15.1983829129       27.6102111970
 Se        19.8154024976        8.2868572336       13.9846257005
 Hg        26.0001766082        7.6310828165       23.0222570970
 Hg        29.1422831071       10.5947690077       22.9932261226
 Hg        32.2629219936       13.6503752151       22.9606749510
 Hg        35.3808823621       16.7208306932       22.9194774748
 Hg        38.3963704509       19.8747419296       23.0466308862
 Hg        41.4026112847       23.0407489773       23.0387455876
 Hg        31.7039771956        7.6310483565       17.4617191857
 Se        30.6798539515       36.8227551354       24.4639469862
 Hg        29.2582242363       41.2445824301       16.6149468097
 Hg         7.1774455333       23.4424390810       36.3527445697
 Hg        19.7422998570       32.3824915649       41.2435485977
 Se        24.3263578750       33.8345100195       39.9435815461
 Se        27.3391721064       36.8253371200       40.2406850618
 Se        27.5919100895       30.6577458768       15.2431069620
 Hg        32.2619525633       22.9682518210       32.2608945370
 Se        18.3683877767       18.3590007465       36.8707616913
 Se        12.1130859525       27.4319352717        8.6720375515
 Se        15.5763694392       30.7284738075        8.8090304519
 Se        18.3885033866       33.6930852614       33.6777852378
 Hg        35.4874040225       22.9779250633       10.8227908172
 Hg        29.2151285629        7.6173197094       26.2040247955
 Hg        32.2501639269       10.6827387529       26.1701067062
 Hg        35.4415697620       13.6404085548       25.9360960700
 Hg        38.3434600484       16.7945838261       26.0937331964
 Hg        41.3735476521       19.8454563578       26.2040968191
 Cl        24.5513686463        6.2130451114       18.4881992961
 Se        33.7702717551       39.9526823339       24.4493865401
 Se        18.2490194928       33.4069543339        8.8042696641
 Se        21.5426275690       36.8764924843        8.6694455773
 Se         9.0498132239       27.6072831086       24.5380404127
 Se        15.2366526883       27.5853901069       24.4671737848
 Se        12.0905098221       18.1843950396       36.7830522873
 Se        15.1828682591       21.4637428467       36.9906782963
 Se        18.3274692541       24.5267398879       36.8221174304
 Se        21.3977953314       27.6225029444       36.8449972102
 Se        24.4897163528       30.7060705829       36.8710733934
 Cl         6.2293954525       18.4636028335       24.5616073938
 Se         9.0500286821       21.3753390168       24.4609538666
 Se        30.7077722471        9.0331414286       21.4348676968
 Se        12.0574164890       15.4481944429       34.0301542107
 Hg        32.4118960410        7.7535902197       29.2452577920
 Hg        35.2298426464       10.8547154246       29.3567675459
 Hg        38.1257603981       13.7319010586       29.4109918192
 Hg        41.3538744238       16.6032790394       29.2033596129
 Hg        38.5548530197       13.8305333510       17.0530681444
 Cl        37.1102927048       40.2790076937       31.7169850958
 Se        27.6064706977       33.8367434812       36.8868372808
 Se        30.8179629500       36.7862962402       36.9102558592
 Se        27.6419617796       24.5166322760        9.0302633500
 Se        30.7020606848       27.7075368618        9.1229528158
 Hg        22.2231305514       34.5321743702       41.3144453607
 Se        18.1808347385       36.9009960254       12.2023974158
 Hg        35.3398636008       26.0592602001       32.2353170935
 Se         8.3092348341       19.7412490620       14.0068324730
 Se        11.9756204875       24.3026010876       11.9497090328
 Se        15.1779290302       27.5102764539       11.9987516064
 Se        18.3581917244       30.6218302319       12.1154328794
 Se        21.4637674477       33.8117586661       11.9939266858
 Cl        17.4553905988       31.4745258950       41.9184609230
 Cl        12.7715452766        5.8797810298       23.6472818930
 Hg        13.5465471178       10.7755318605       26.0199264790
 Hg        16.7764797157       13.6524776433       26.0590053335
 Hg        19.8515421450       16.7648126977       26.0713328095
 Se        27.5977124889        9.0647093471       18.3302730622
 Cl        21.4303617808       32.8954708978       43.1739633532
 Se        24.6776766669       37.0157866094       11.9383913735
 Se        29.2526622870       40.6968093861       14.0128403681
 Se         9.0380781360       15.3294319199       30.8914168064
 Se        21.6613306316       40.2425106494       12.1694062109
 Hg        38.3906931757       29.2364116789       32.2333138892
 Hg        25.5433198539       36.3514718896       41.8230820142
 Cl         6.2464122188       27.1056792592       15.1002240171
 Se        15.2366517002       12.2292357746       21.3775364073
 Se        18.3405459763       15.2353170788       21.4264580137
 Cl         5.8412979075       32.8992856761       27.5156936481
 Se        33.7861510545       27.6015223635       12.2602215569
 Cl         5.9180623907       12.7401447243       23.6832621627
 Se        18.2975385115       30.6973544381       24.4773581023
 Se        15.5804503067       18.2491158001       40.1832976791
 Cl        23.5601056445       36.3098259118       43.0657679728
 Hg        38.4534604476       13.3762219316       22.9769044341
 Hg        41.5900751436       16.8821722218       23.2017992750
 Se        24.5063227341       24.5125942998       30.6709711542
 Hg        41.3694211165       31.7176565758       31.5442320424
 Se         8.9730089055       30.7808955699       15.2805940184
 Se        12.2670380320       21.3714880471       15.2153672915
 Se        15.2045730389       24.5049768424       15.1896297777
 Se        18.3082146008       27.5656828827       15.1888135455
 Se        21.4211013431       30.6796896591       15.1833852138
 Se        24.4783781503       33.7911826737       15.1800306637
 Se        27.6131444666       36.7295036445       15.2070792246
 Cl         5.8434344925       16.0760017617       21.4925735724
 Se        30.6205544089       15.3257960964       33.6961960967
 Se        18.3055627890       21.5402258483       39.9499043690
 Se        21.4235265803       24.5725527297       39.9558800982
 Se        24.4668134116       27.6430502137       39.9670261684
 Se        36.7320430605       30.9885794624       12.2001621624
 Hg         7.1641138996       12.7126676939       25.6749667341
 Hg        10.8182335802       13.5196576373       26.0213038883
 Hg        13.6787609294       16.7641076498       26.0525268074
 Hg        16.7828757397       19.8405486334       26.0665235979
 Hg        19.8629387771       22.9474315532       26.0503823823
 Se        27.5835402592       30.7137428445       39.9671806418
 Se        30.8210390448       33.7241855897       40.0109150318
 Se        24.3289511144       11.9657679915       11.9846227250
 Se        33.8406820113       12.1112357333       21.4011905591
 Cl         5.8393242019       27.5438983936       32.8864787177
 Se        27.6197012945       15.1843306194       12.0859770667
 Se        18.3381180938       27.5669386055       27.5547535752
 Se         8.3034880331       13.9610447280       19.8211476361
 Se        12.0692182511       18.1367124673       18.1520569669
 Se        15.2496248685       21.4055683830       18.3314423613
 Se        18.3085132218       24.4842526930       18.2957252391
 Se        21.4036372185       27.5886449074       18.2914082340
 Se        24.5034172271       30.6887250865       18.2873494878
 Se        21.4290163362       30.6646139318       27.5507248873
 Cl        23.6511943562       12.7350040526        5.9113436892
 Cl        27.2186220843       15.0167324486        6.3680754253
 Cl        30.2985898010       18.4346685033        5.9408743224
 Cl        33.9199628432       21.8475471282        6.2530560627
 Cl        36.3183035878       25.4371127002        5.9275981292
 Se        12.2227248234       17.9768604868       12.2712218238
 Se        27.5776746434       33.7521096505       18.3204627394
 Se        30.8575224031       36.9354759790       18.1388994800
 Se        35.0536058137       40.6563170289       19.8025371246
 Se        15.2407011771       21.3645267611       12.2081365620
 Se        14.1593094404       34.8369797613       34.8050955459
 Se        21.3974970754       33.7672519397       24.4587382105