    1259
 i =        8, E =    -44936.3992675057
 Cl        20.7402911695       42.2408397585       20.8281368031
 Cl        25.9928245761       42.0273606298       25.9765503559
  S        39.4971602322       17.9803944807       26.0728771063
 Cl        42.0854424404       20.8240756147       26.0240060635
 Zn        32.8540603131       21.8727939829       40.6878418856
  S        20.6231149482       34.0457132479       28.6135934586
  S        23.2722724756       36.7415048445       28.7070980090
  S        25.9554878007       39.4064739442       28.6824518725
 Cl        28.6151018796       42.0438555730       28.6151811593
  S        20.5655383362       31.4072192047       20.5346726210
  S        33.9029835973       39.6581912707       31.2947868440
  S        12.3257369415       25.7170143485       17.9255289396
  S        23.2455904791       31.3963063282       23.2683088392
 Zn        35.5988077912       21.9567130582       16.4902333432
  S        23.2402611138       34.1168437766       20.5438064575
 Zn        33.0331490116       40.6806581354       21.9681655721
  S        25.9944669253       17.8919898250       28.6975095487
 Zn        11.4883347548       29.6253457573       16.9597067092
  S        31.4520769830       15.1902705596       20.6055795015
 Zn        16.8192168356       35.1189008258       16.7378694449
  S        34.1828285862       17.8958817849       20.6083745417
 Zn        22.3705247322       40.5881962879       16.9679291421
  S        39.9254637166       30.0119548012       16.7745429226
  S        23.3222376342       25.9689785607       17.9584735749
 Cl         9.9382807617       28.6013151093       23.3850625413
  S        12.5391108571       31.3784158389       23.2548198127
  S        25.9958606631       36.8082189381       20.5413680266
  S        17.9598725473       15.1979530617       34.2602226294
  S        20.6267013902       17.8868997525       34.1502141456
  S        23.3040457614       20.6121016765       34.0886255378
  S        25.9975514894       23.3364291235       34.0388653659
  S        28.7104683060       26.0536274940       34.0694460625
  S        31.3880100060       28.7558419659       34.1060601410
  S        34.0986041456       31.4688574254       34.1027334900
  S        28.6959481524       28.7373389753       36.7877182986
 Zn        40.5908378154       27.9383711221       17.2225631428
 Zn        11.2351481186       27.0434460056       19.4602729388
 Zn        13.8293169036       30.0368233880       19.2088658458
 Zn        16.4972902636       32.7734769871       19.1343285298
 Zn        19.2072608491       35.5129181773       19.1314044956
 Zn        21.8976190047       38.1821942284       19.1423543772
 Zn        24.9529069257       40.8368893509       19.4658553547
 Zn        26.8939390434       10.9038178840       16.2095879074
  S        17.8798445497       20.5813682186       28.7448572302
  S        36.8185206426       34.2609174656       34.0360958008
 Cl        25.9675217188       42.0873007754       31.1822900267
  S        12.2631584321       23.6180854851       36.6817740486
  S        15.1877950233       26.1362904452       36.7937493415
  S        17.9870724238       28.6650538236       36.6035466785
  S        20.5272079356       31.4630256684       36.7238870890
 Zn        40.5912165133       16.9647406959       22.3759132650
 Cl        23.4335809582       18.0982972912       42.1422184844
 Cl        26.0162218117       20.7912696269       42.0949083031
  S        31.3658553134       31.4732830102       36.8181694140
 Zn        24.5595681001       32.7630207679       21.9046509845
 Zn        11.2991432037       24.5393265322       21.9709705505
 Zn        13.8987369774       27.2936945629       21.9589323942
 Zn        16.5549780623       30.0430400744       21.8868514798
 Zn        19.2232798804       32.7719410813       21.8763541669
 Zn        21.8943573034       35.4470956045       21.8868415372
 Zn        24.6423238744       38.1071214290       21.8944246804
 Zn        27.4575754700       40.7580517883       21.9698886637
  S        20.5855623040       36.8354512205       20.5277039837
  S        20.5856037699       23.2807877090       28.6940103781
 Zn        35.6914131028       14.0634326182       24.5574829847
 Cl        28.7391508681       23.2123756069       42.0439204774
 Cl        31.1658905224       25.9974703241       42.0569640591
 Cl        34.0969808973       28.3679101398       42.0887469273
 Zn        11.3132087742       32.9406853217       30.0359730133
 Zn        34.8633793148       23.8881649248       41.0109189558
 Zn        33.0199153289       16.3086451474       14.4007096493
 Zn        14.1586354731       16.6417888268       21.8786753729
  S        20.6563964612       15.2149773173       36.9202862762
 Zn        14.1510097424       35.3543004707       30.1190885416
 Zn        11.3077957476       21.9616399439       24.5573507502
 Zn        13.9700814190       24.6247343083       24.6332499261
 Zn        16.5642325345       27.3594851663       24.6251285512
 Zn        19.2302700859       30.0431882599       24.5685022058
 Zn        21.8985188047       32.7622859450       24.6156027190
 Zn        24.6233010021       35.4327507878       24.6177732757
 Zn        27.3658405396       38.0368304698       24.6225349260
 Zn        30.0973832431       40.6910907616       24.5544001888
  S        23.3525412981       39.5278040805       20.5428999001
  S        23.3719252780       17.9144900317       36.8650646902
  S        26.0213245041       20.6293638402       36.7080346807
  S        28.7202854399       23.2924192774       36.7358136718
  S        31.4008876331       26.0125032349       36.8117198971
  S        34.0603641562       28.7205086641       36.8172768765
  S        36.8247906128       31.2316104181       36.8303975180
  S        26.0159535812       15.1883535333       20.5872759442
 Zn        29.7129375938       16.8900790130       11.5743416367
  S        23.3244895473       34.0384566336       36.6693155510
 Zn        16.6518664260       37.8495835357       30.1307523008
 Zn        11.3151963012       19.4593613906       27.1361625332
 Zn        13.9045723547       21.9628920609       27.3638522432
 Zn        16.5670858262       24.6339117619       27.3677852240
 Zn        19.2354656839       27.3509710192       27.3002078765
 Zn        21.9573540543       30.0359241856       27.2913602554
 Zn        24.6292322746       32.7066752413       27.2954490060
 Zn        27.3029137060       35.3719491540       27.3016100888
 Zn        30.0245005629       38.0269584931       27.2838140393
 Zn        32.6126795199       40.8455558175       27.2017800983
 Zn        38.8469878870       21.5596881447       14.5740040801
  S        25.8977232452       36.8790894212       36.8011888230
  S        28.4738553844       39.7452345004       36.7208824983
  S        23.3259514794       17.9189053642       15.3331622027
 Cl         9.7640276554       20.7404252021       31.1089797640
  S        34.0180409335       34.2648266654       36.8074807584
 Zn        19.1386267787       40.6865661613       30.1297981600
  S        23.3507963884       36.6161548823       34.0144475698
  S        25.9231506574       39.4981939848       34.0192117959
  S        23.3822346016       20.6480518017       39.4457180247
 Zn        11.6508814127       16.8780307546       29.7868652609
 Zn        13.9058848660       19.2315281764       30.1081975967
 Zn        16.5567988753       21.9543675325       30.1024395170
 Zn        19.2312568938       24.6301038638       30.0349392365
 Zn        21.9651879222       27.3587441940       30.0234768714
 Zn        24.6984467151       30.0386346915       30.0223590755
 Zn        27.3686440698       32.7744278099       30.0370221167
 Zn        30.0410276560       35.4457731220       30.0385004691
 Zn        32.7673577367       38.1719050317       30.0425509238
 Zn        35.0276126326       40.5898923528       29.6297273665
 Cl        26.0324575643       42.1926510188       20.8746591017
  S        23.2251665425       39.4288075268       31.4486629348
  S        23.3061606720       26.0010577233       28.6761787825
  S        12.4864671624       23.3787271958       31.3813213472
  S        15.2081565714       26.0171837410       31.4143433110
  S        17.9825349958       28.6529491708       31.3139944506
  S        20.6674346932       31.3304584685       31.2958842858
  S        23.3252119209       33.9944136413       31.3312612658
 Zn        16.6312911951       19.3779110114       21.9647373976
 Zn        19.3041559217       21.9641418110       22.0383149594
 Zn        14.3785332027       16.3897095765       32.9424757203
 Zn        16.4899947940       19.2276872146       32.8563472725
 Zn        19.2300961662       21.9006101691       32.7812744433
 Zn        21.9546084812       24.6318282708       32.7092788462
 Zn        24.7010199338       27.3712815963       32.7049190170
 Zn        27.3735064858       30.1066104005       32.7705869507
 Zn        30.1093498585       32.8497652724       32.7768762286
 Zn        32.7696934939       35.5321337945       32.6999257314
 Zn        35.3627099846       38.2640516987       32.3710749418
  S        23.3023673701       15.2060351938       28.7258941966
  S        23.5012987667       15.1942338172       39.6989536359
  S        26.0583022983       17.9672774900       39.4696030045
  S        28.7790930081       20.5342872558       39.4160255364
  S        31.3852255608       23.2171078127       39.4413185908
  S        34.0831799499       25.8190121562       39.6183587170
  S        36.6670801093       28.4511698753       39.7501166393
  S        20.5816044175       28.6892735367       23.2574331293
 Zn        16.3964806662       27.2873681795       13.8149980948
  S        36.7097868807       20.6239693197       26.0185756892
 Zn        21.9649053383       24.6409283679       21.9654872869
 Zn        16.8214815008       16.8854856042       35.2021960388
 Zn        19.3015441691       19.3032470141       35.4463862400
 Zn        21.9583387403       21.9611865773       35.4365167857
 Zn        24.6425376067       24.6930034003       35.3635881875
 Zn        27.3668677309       27.3742075186       35.4283443908
 Zn        30.0415740789       30.1131537836       35.4434977526
 Zn        32.7787907186       32.8640051508       35.5069712036
 Zn        35.1199459314       35.2717051979       35.1198556365
 Zn        19.2256873458       30.0366019585       13.8127731861
 Cl        28.5599139832       42.2075875475       33.8254004821
  S        15.1669244499       34.1123351882       23.2739747504
 Zn        19.7127291475       11.3340664158       32.3628405376
 Zn        32.7814926186       21.9593740437       13.8179117085
  S        26.0046557695       28.6856057224       28.6668675694
  S        25.9759875689       36.7086006005       31.3755049697
  S        28.5963053404       39.4359614477       31.3604088422
 Cl        37.5688172844       34.3350623110       37.6444330542
  S        26.0030566578       20.5614216512       15.1878541470
  S        28.7338447335       23.2819774448       15.2156723246
 Zn        24.6270963628       27.3589379267       21.9554935232
 Zn        19.7187009353       16.8895413312       38.0117717251
 Zn        21.9567176921       19.2323391911       38.1851899617
 Zn        24.7105691398       21.9723087030       38.0293163591
 Zn        27.3628244592       24.6314801640       38.0258139338
 Zn        30.0295150627       27.3676236874       38.0998099220
 Zn        32.7072705531       30.1126278306       38.0980641925
 Zn        35.6099234820       32.9485446400       37.6150871331
 Zn        21.9587629530       32.7675735317       13.8140431387
  S        31.4254759137       25.9995377229       15.1994385539
 Zn        11.3126122399       21.8648721841       19.1423910671
  S        28.6803731172       20.6393173240       28.6509860515
 Zn        10.9927553861       17.0510493455       23.9680625447
 Zn        13.9090642954       19.2283493409       24.6105530211
 Zn        24.7044743298       35.5344190024       13.8129601986
 Zn        16.5638915215       21.9528769132       24.6955554624
 Zn        27.2971174351       30.0325326685       21.9609820330
  S        31.3478682888       23.3534485381       28.6651693803
  S        15.3611232972       15.3327808937       20.4630837618
  S        18.0262120204       17.9860267368       20.7018021405
 Zn        29.9546136787       32.6938926089       21.9777789283
 Zn        22.3735623916       16.8959690269       40.4992378293
 Zn        24.7927472840       19.3798544875       40.8388459703
 Zn        27.4418850741       21.8982091866       40.6900137836
 Zn        29.9722068560       24.5507561929       40.6953690053
  S        31.4255525164       17.8958451957       23.2855327032
  S        34.0975827124       20.6003408681       23.2858717846
  S        36.7487671936       23.3370119363       23.3242216902
  S        39.4165553184       26.0486290551       23.2924234707
 Cl        42.0581782982       28.7402811194       23.1835187754
 Zn        32.5221089723       27.1298864458       40.6881206552
 Zn        35.0475039733       29.7785325470       40.4171729522
  S        36.6680765439       23.3628721383       34.0419515530
  S        20.7081682919       20.6549471141       20.7114835545
  S        23.3580260074       23.3096215140       20.6545173258
 Zn        35.0353595582       11.4858270585       22.3718658089
 Cl        20.6776786011       12.6058782091       39.6074201059
 Cl        28.5306716608       18.3711008422       42.3957839279
 Cl        32.0308032391       19.8336192965       41.3133571492
 Cl        33.2980755312       23.2286372401       42.5363853281
 Cl        36.4846424962       25.1072915252       42.1311160015
  S        12.5357800748       20.6064242488       28.7098120202
 Cl        10.6974670746       32.1612827773       32.0623443560
  S        31.3710574618       28.7165606592       39.4779247075
  S        23.3561481840       12.5247361562       31.4001114857
  S        39.4843075035       28.6915668742       31.4026794671
 Cl        42.2469791611       31.1165219937       31.2369237704
  S        20.5785735583       36.8061036311       25.9799860440
  S        34.1038462965       37.0164591806       34.0065413264
  S        25.9706733816       23.2958108439       12.5891073046
 Cl        32.0835647493       10.5147507159       32.0967361029
  S        34.1139152807       34.1424936835       31.3971924602
  S        15.3327566451       36.6620951120       31.5458244377
 Zn        13.9057796064       24.5354178585       19.2931438456
 Zn        16.5517092514       27.3632013708       19.2197551509
 Zn        19.2207353062       30.0555643090       19.1574986926
  S        23.3038755678       39.4162464781       26.0071676484
 Cl         9.4450839064       23.1849067620       18.6959542829
 Zn        35.8681385517       11.0654765583       25.2768419049
 Zn        30.1270906048       38.0138099203       21.8805060382
  S        36.7790743023       36.7759396054       31.3442287154
 Cl        19.9591866639       41.3001224232       32.1715680023
 Cl        42.0453587038       25.9907463459       25.9983721106
 Zn        21.9557880946       13.8861773775       32.7878161353
 Zn        21.8132949547       19.1348576255       11.3139807026
 Zn        24.5445799515       21.9657610988       11.3060301788
 Zn        27.2905733434       24.7068074039       11.3094325684
 Zn        30.0258679392       27.4553563624       11.2373068441
 Zn        32.7890196272       30.1980590848       11.3114689371
  S        39.6659582709       25.7875445194       34.0804214254
 Zn        32.7881695844       13.8334505532       21.9569930429
 Zn        19.2324005091       24.6410437732       24.6420658569
  S        26.0482909615       23.2996992630       39.4137628498
  S        34.0831019778       26.0476228099       28.7061705750
  S        26.0061767456       25.9852303993       20.6395341624
  S        28.6593454026       28.6468674843       20.6558518127
  S        31.2948722493       31.2983587377       20.6991927581
  S        33.9673513298       33.9591521983       20.6845888368
  S        36.6605073379       36.5960553039       20.4002736319
  S        12.3310362966       26.2691532973       34.0677680821
 Zn        32.6069823496       35.3652832641       21.9581912484
 Zn        21.9394314326       27.3530663962       24.6267245732
 Zn        24.6355263602       16.5549028226       32.7720654799
 Zn        21.8043510274       16.6560392450       14.1502749452
 Zn        24.5431700368       19.2338669771       13.9017910311
 Zn        27.3591122305       21.9580845479       13.9008368924
 Zn        30.0355055728       24.6977669724       13.8941348562
 Zn        32.7045050930       27.4619395474       13.9002565682
 Zn        35.2632095759       30.2006700302       14.1454230194
  S        15.3235845398       28.7043363527       33.9956366065
 Zn        35.6077789949       16.4882063690       21.9001054423
  S        12.3537112420       20.6492022054       34.0193509566
  S        15.1776010692       23.2996522761       34.1098335471
  S        17.9403099526       25.9682424031       34.0379986472
  S        26.0195804538       15.2064081687       31.4178436122
 Zn        24.6198569104       30.0477655649       24.6203665271
  S        20.6592967867       28.6724485276       33.9835472102
  S        23.3592015738       31.3540743668       34.0290616817
  S        26.0394014289       34.0552215840       34.0623890518
 Zn        27.2930080698       32.7071172404       24.6269782725
  S        34.0323293839       31.5065341839       39.5297395343
 Zn        27.3028774287       19.2955110084       32.6984407444
 Zn        21.8694957100       14.1574220780       16.6469914267
 Zn        24.7812045060       16.5541476520       16.5584763765
 Zn        27.3708844252       19.2326939655       16.5512025930
 Zn        30.1049534662       21.9043536254       16.5545160484
 Zn        32.7733347389       24.6244155588       16.5541078490
 Zn        35.4289599951       27.2128698421       16.5519389357
 Zn        37.7064959458       30.1320675849       16.6431175441
  S        18.0151269553       31.3198983785       33.9378462054
  S        15.2279799402       31.4582324781       31.4421473209
 Zn        30.0220223153       35.3635308938       24.6273438455
 Zn        32.6999614687       38.0274817679       24.6256868148
 Zn        34.7718264056       40.5256893183       24.1179870733
  S        28.6547028837       36.8486472368       34.0973099072
 Zn        32.2891249953       19.7145889416       11.3226717705
 Cl         9.9545308567       25.9978478961       25.9905474113
 Zn        16.2124724954       10.9778709534       26.8740482476
 Cl         9.9293177009       24.9701443938       15.4239168010
  S        12.2444934830       28.3783822068       15.2981318322
  S        28.7280222227       31.4605100630       34.1023571672
 Zn        21.8867261615       11.3147604296       19.0602429122
 Zn        24.5532459309       13.8974613717       19.3018709188
 Zn        27.3821998273       16.5490260452       19.2424494619
 Zn        30.1090811039       19.2232778384       19.2310719839
 Zn        32.7858213763       21.8955749354       19.2234604797
 Zn        35.4441695089       24.6209675835       19.2238064642
 Zn        38.0353346093       27.3690868243       19.2372268303
 Zn        40.6826418611       30.0449017725       18.9718846926
 Zn        30.0261546724       22.0386408181       32.6941178133
  S        15.1929363570       31.3616645630       15.0651398747
  S        17.9640638213       34.0334633585       15.0381047007
 Zn        35.0271070724       22.3684156447       11.4834496883
 Zn        35.8571466131       25.2888710581       11.0641574176
 Zn        35.7850887961       26.8768591888       41.0206639287
 Cl        28.6127339702        9.9326622978       23.3924244660
  S        31.3348382200       39.6921618439       33.9144408022
 Zn        30.1060647845       19.2246681470       13.8894066409
  S        36.7845206677       28.7396692125       28.7130001561
  S        12.2869684566       15.2386633644       28.4808429243
 Zn        10.9799893282       35.8592536476       25.0476717536
 Zn        24.5554374373       11.2374380390       21.9595183038
 Zn        27.3647072155       13.8941877760       21.9642366510
 Zn        30.1054908837       16.5532434256       21.9518841051
 Zn        32.7859449174       19.2285613423       21.9025191883
 Zn        35.4418634636       21.9604283999       21.9584900854
 Zn        38.0293847326       24.7180183361       21.9644933503
 Zn        40.6907954918       27.4412214987       21.8913139161
  S        28.6594927546       17.9816016943       31.3290218401
 Zn        16.2134150547       41.0224599614       25.1251037976
  S        28.7299409476       15.2036723565       23.3027466895
 Zn        21.8901678743       32.7739411523       19.1610754242
 Zn        35.3535089707       37.7012158949       21.8724142491
  S        15.2049368589       23.5154921564       39.6600999586
  S        17.9225385094       26.0887999753       39.4609118649
  S        20.5224048242       28.7570209787       39.4323596450
  S        23.1655803533       31.3963965250       39.4435399401
 Zn        24.6208788016       35.4508511662       19.2158107637
 Zn        27.4571821385       38.1092391485       19.2334676029
  S        15.1747397231       17.8887570106       28.7088467576
  S        21.9312961929       11.9597063224       16.8555342011
 Zn        27.2981917585       11.3020743118       24.7054642214
 Zn        30.0415209753       13.8925432318       24.7062500213
 Zn        32.7803669443       16.5519470017       24.6261051244
 Zn        35.4431386679       19.2256472443       24.6185371222
 Zn        38.0290641207       21.9727289629       24.7105537012
 Zn        40.6872821278       24.7118417569       24.7045927149
 Zn        32.3637409866       11.3293112877       19.7108664879
  S        31.3716233383       36.7041438434       25.9754400391
 Zn        30.1920903504       40.6894141429       19.2013076591
 Zn        11.0626838045       25.2795422010       35.8636551609
 Zn        21.8010017777       32.8570663325       40.6891211512
  S        25.7007715223       34.0706589714       39.7010606371
  S        28.3898154051       36.7268994584       39.7898607662
  S        28.6633793332       31.3379399438       18.0069610982
 Zn        32.7065641460       24.7136184409       32.7020625332
  S        20.6336681561       20.6365796897       36.8274852035
  S        15.1939757160       28.4949096823       12.2977766935
  S        18.0508779556       31.3316748779       12.3216655409
  S        20.6724711172       33.9640188376       33.9618993638
 Zn        35.6866558015       24.5591339568       14.0603426000
 Zn        30.0333273023       11.2375794659       27.4557377030
 Zn        32.7600119393       13.8919320094       27.4591628938
 Zn        35.4421367562       16.5594988346       27.2138743213
 Zn        38.0367058064       19.3006692269       27.3754765747
 Zn        40.6903728867       21.9564052308       27.4458028251
 Cl        26.0316898317        9.8831225578       20.8065981591
  S        34.0248406439       39.4765141536       25.9420045390
  S        20.6709117089       33.9033314440       12.3007107131
  S        23.5257669124       36.7225301537       12.2517680079
  S        12.5953965988       28.6930010554       26.0044379196
  S        17.8992967421       28.7060719627       25.9500506896
  S        15.1924269301       20.6332473505       36.9232790009
  S        17.8986542991       23.3590987199       36.8385432011
  S        20.6188876652       26.0210535560       36.7034924286
  S        23.2590830778       28.7225043349       36.7527416805
  S        25.9861550284       31.4284779185       36.7947551344
 Cl         9.9330724364       20.8016401025       26.0180120365
  S        12.5893209488       23.2978953471       25.9769781964
  S        31.4110545766       12.4979678232       23.3824047630
  S        15.1504693037       18.0117361734       34.2408998478
 Zn        32.8658777062       11.2417434710       30.1139296874
 Zn        35.2807218101       14.1456820023       30.2025742082
 Zn        37.7664352973       16.6442667124       30.1222957351
 Zn        40.6854986333       18.9818728003       30.0354247162
 Zn        38.0918904931       16.8871167398       19.7001026088
 Cl        37.2167845046       39.9101674134       32.3237981793
  S        28.7042812451       34.1717210750       36.8176318907
  S        31.3998737670       36.9789228760       36.7865725270
  S        28.6928267094       26.0502000225       12.5657688194
  S        31.3747466578       28.7935027888       12.5483679413
 Zn        23.8011821345       34.8572386719       41.0157372097
  S        20.6149064842       36.8049735338       15.0287968345
 Zn        35.4419398904       27.3731010947       32.7685887008
  S        11.9569335457       21.7947220463       16.9409314560
  S        15.1813484610       25.8677119640       15.1402711677
  S        17.8920137305       28.6270315162       15.1381651841
  S        20.6359045637       31.3527637956       15.1550309367
  S        23.3385033311       34.0967590787       15.1507563948
 Cl        19.7905100963       32.0233111415       41.3630518292
 Cl        15.5081953237        9.8597967083       25.1096542185
 Zn        16.4089313116       13.9779165820       27.3744242176
 Zn        19.2898461072       16.5502525940       27.3798287267
 Zn        21.9596683435       19.2286422696       27.3773547104
  S        28.7321111806       12.5202295751       20.6177713732
 Cl        23.1332404682       33.3028032861       42.5562163557
  S        26.0671018473       36.8134824864       15.1414194817
  S        30.2143030203       40.0547270136       16.9888195248
  S        12.4800655092       17.9397643302       31.5109144646
  S        23.5904896118       39.8174500457       15.2843342724
 Zn        38.1105287115       30.1060927256       32.7754796393
 Zn        26.7099490239       35.8585073254       40.9344816910
 Cl         9.8437423306       28.1925291025       17.8410040736
  S        17.9707581394       15.3225722658       23.3626712343
  S        20.6675814705       17.9331073212       23.3571274218
 Cl         9.4706028408       33.3697118161       28.6621467978
  S        34.0319637397       28.6704177176       15.3267287943
 Cl         9.8713759215       15.4294017443       25.1861795174
  S        20.5847875719       31.3722102207       25.9392270481
  S        18.0490466084       20.6631681459       39.6703727941
 Cl        24.9627698262       36.5731629249       42.0692522711
 Zn        38.1842732552       16.4628288798       24.7044593442
 Zn        40.8458928883       19.3921447396       24.7977656970
  S        26.0091802917       26.0160588994       31.3577311695
 Zn        40.6775753884       32.2882128029       32.2851000607
  S        12.3791529371       31.3489616344       17.9448661391
  S        15.3367578891       23.3172462546       17.9706418730
  S        17.9452379409       26.0210955767       17.9567882572
  S        20.6074336257       28.6924705421       17.8842905467
  S        23.2844709817       31.3957487083       17.8894619822
  S        25.9520795328       34.0635317071       17.9423374741
  S        28.6724324055       36.6663377339       17.9466929565
 Cl         9.4668172080       18.6159511082       23.3243707459
  S        31.3324394635       18.0405900705       33.9495820989
  S        20.5962145902       23.4170781497       39.4324016577
  S        23.2999422599       26.0316491008       39.4095328950
  S        25.9278515443       28.7065245000       39.4412400223
  S        36.5926621909       31.5979468360       15.3327653798
 Zn        10.9773081379       16.1361944957       26.9515080213
 Zn        13.9787166199       16.3986017980       27.3691970941
 Zn        16.5573098945       19.2303221004       27.3798609850
 Zn        19.2309249494       21.9005589652       27.3754938017
 Zn        21.9493775884       24.6403962773       27.3639678875
  S        28.6207729932       31.4202354420       39.4971798989
  S        31.3618251768       34.0798893188       39.6335777630
  S        25.9432730316       15.1283063295       15.2049966755
  S        34.1385356192       15.1860048005       23.2800437947
 Cl         9.4440146206       28.8042302976       33.3070297299
  S        28.7133619695       17.8905049615       15.1834302757
  S        20.6260539659       28.6675590543       28.6281148392
  S        11.9572068785       16.8424899228       21.9503250793
  S        15.2709122379       20.5191067932       20.5457390682
  S        17.9766572746       23.3207610659       20.6808190998
  S        20.6300771163       26.0097140874       20.6165698685
  S        23.2861617519       28.6981979743       20.5925150689
  S        25.9345031132       31.3727357885       20.6221724342
  S        23.3233618328       31.3469301615       28.6401622710
 Cl        25.0497980682       15.4491522655        9.9115414365
 Cl        28.3236389049       17.8258525654        9.9084423489
 Cl        31.1161498368       20.7614738296        9.7541793775
 Cl        34.1549551005       23.8018517580        9.8388958581
 Cl        36.5258981437       27.0510450099        9.9298016454