    1847
 i =      148, E =    -71516.4130939125
 Ga        39.2967090427       20.9571331149       44.3272057208
 Ga        26.8689301578       38.8143697021       44.9660673041
 Ga        35.9267314222       21.0363554559       29.9315379654
 Ga        38.9780668578       38.9704020904       32.9743416227
 Ga        32.9712786384       20.9566977889       21.0285711377
 Sb        43.3366250910       19.5848796779       28.5476121888
 Sb        43.3544450897       19.5487958031       34.4474117026
 Ga        33.0357167974       30.0041634528       36.0012734764
 Ga        45.0406640457       21.2005451464       21.2736587351
 Sb        43.6177868333       19.0937126736       40.6795350634
 Sb        34.5159966537       40.3542594636       16.5273608995
 Ga        32.9642952943       21.0346421796       26.9648241066
 Sb        34.4039591240       40.3049780878       22.5211471673
 Cl        43.4545619818       22.9411078831       13.9019554514
 Sb        43.5527249397       22.5645659103       19.6490376624
 Sb        43.3322745968       22.6116571081       25.5543411896
 Sb        43.4505408219       22.4696745665       31.4967786696
 Ga        38.9627316265       38.9636716612       27.0434995821
 Ga        32.9643498182       21.0364615999       32.9621449783
 Sb        43.3437313080       22.4433600172       37.4215521903
 Sb        43.7094253825       22.0316053433       43.5973172782
 Sb        34.4470030739       40.4357055112       28.4840722531
 Cl        46.1091011603       25.4816827827       25.4499403223
 Ga        35.9307458551       21.0457350996       35.9246086288
 Cl        43.2590560047       25.9231549683       10.7284913575
 Sb        43.5171807058       25.5622060207       16.6124851721
 Sb        43.3333729731       25.5609969740       22.6147179705
 Sb        43.4166500451       25.5514084765       28.4484402742
 Sb        43.4367585767       25.4597694582       34.3578948773
 Cl        46.1892901644       34.3402944015       28.3150277606
 Ga        44.7211198096       21.1843994875       27.1262240478
 Sb        43.5243546899       25.3755682638       40.4305170741
 Cl        42.7777033381       24.5781455706       46.5238641989
 Cl        42.7195071160       29.3796401658        7.4758892456
 Sb        43.4406132218       28.5661737188       13.5293594827
 Sb        43.3158082351       28.5674558662       19.6311864206
 Ga        32.9637861007       29.9244411949       42.0002765423
 Sb        40.5935756975       37.6874254513       13.4342461555
 Sb        43.3964234732       28.4718413030       25.5550313731
 Sb        43.4430560720       28.3997819613       31.4792477508
 Sb        43.5845241299       28.3992899826       37.3640167259
 Cl        43.2811943715       28.0207805117       43.2584933883
 Ga        30.3245524268       11.9879806069       44.7397028640
 Ga        36.0074911152       38.9759558168       36.0717950259
 Ga        33.0410334057       20.9512276689       44.6396243571
 Ga        36.0019098914       20.9610730901       41.7597608149
 Sb        43.6187457153       31.9219902923       10.3882424549
 Sb        43.2909978797       31.5212685941       16.5883388957
 Sb        43.3185186658       31.4861017915       22.5447888835
 Sb        43.4167608186       31.4853342967       28.4421533581
 Ga        35.9986158340       20.9572438412       17.9935423808
 Sb        31.3172744732       19.5836858182       10.4651793111
 Sb        43.6145640157       31.3843987575       34.4084097180
 Cl        43.4503525728       31.0302326152       40.1541852542
 Sb        37.4502331603       28.4709999079       13.6041449613
 Cl        46.1172661558       28.9011636059       16.9769961758
 Sb        43.6130802612       34.8865657189       13.3189331933
 Cl        46.8756172780       33.5608567415       33.4887898815
 Cl        42.6143033083       46.6196045280       24.5749412678
 Sb        43.2596840705       34.5078310442       19.5053769186
 Sb        43.4085253847       34.3961743668       25.4972059574
 Sb        43.5613960030       34.3822870298       31.4023876861
 Cl        43.4464176373       34.1197820535       37.0774269135
 Cl        30.6621534031       17.2473088655        7.2829541399
 Zn        33.0482695591       32.9695852900        9.1320477026
 Ga        27.0461639475       41.9248930018       11.9959415853
 Ga        41.8405093035       27.0424412246       24.0838745908
 Ga        35.6897968608       24.2382419244        8.9509596594
 Cl        43.2745541127       37.3661845724       16.8487122749
 Sb        43.2898373524       37.4643358128       22.4136525331
 Sb        43.5234642092       37.3833634807       28.4545418515
 Sb        40.3981783243       37.4389312884       19.4957485655
 Cl        43.4351034632       37.1303108213       34.0674344586
 Ga        27.0356900063       41.9289999561       18.0029565455
 Ga        30.3342197580       41.9276641819        9.1984009413
 Ga        35.9321175660       23.9885328135       14.9666292897
 Sb        43.5728218439       40.7378064142       19.1155270722
 Sb        40.4148845032       37.4377179843       25.5226481437
 Sb        43.4458511305       40.4424134493       25.3908786533
 Cl        43.3628692203       40.1950752533       31.0647818278
 Ga        26.9746440445       41.8555546191       24.0016366799
 Sb        40.5211960191       37.4538177982       31.4916095584
 Cl        37.1763316179       28.8463615994        7.9652792694
 Ga        39.2853442816       41.6848914760       18.1558132127
 Ga        35.9329092283       23.9271849626       21.0319702532
 Sb        43.6439750682       43.6473842584       22.0698418557
 Zn        44.8885045010       21.0275992672       33.0440164772
 Ga        35.9310508737       23.9980830433       26.9697100400
 Cl        43.2057155002       43.2625294821       28.0257592669
 Sb        37.4072087231       28.4423473631       19.5614625554
 Ga        44.4183282561       20.8727134708       39.1226201166
 Ga        35.9292112986       24.0614815194       32.9637292488
 Ga        32.9527508155       32.8859868926       15.1792405114
 Sb        34.4865342916       40.5128387941       34.5218237773
 Ga        42.0082245036       33.1934602528       11.9965221184
 Ga        41.7650733587       32.9578857085       18.0680701781
 Cl        43.4541491838       16.9102051066       19.9249013616
 Sb        40.5318820709       13.5395440973       31.6157991218
 Sb        37.4168693080       31.5363458968       10.7030658078
 Sb        43.5534997433       16.5735281062       25.6085164701
 Sb        40.6340524624       13.4320362309       37.7507603355
 Sb        37.3957399158       31.4278167566       16.6064109749
 Ga        29.8334380989       35.6881932106       45.1245492335
 Sb        43.3521434553       16.6072094196       31.5173954899
 Cl        34.0985524189       40.2471248983       40.3038711001
 Sb        37.3659271360       31.4366283292       22.5738584453
 Ga        38.9719849166       35.9991868769       30.0135760386
 Cl        31.0993382854       22.8042884564        7.9347463021
 Ga        38.8881907038       24.0063888677       11.9164729280
 Sb        37.4181240834       31.4747567734       28.5449659827
 Ga        32.9514008803       32.8932481075       21.1040062191
 Sb        31.4499792890       22.4837951677       13.5927508502
 Sb        31.4676155203       22.4684819083       19.5674146151
 Ga        32.9671700810       21.0405932089       38.8114314419
 Sb        37.4893290295       31.4910693905       34.5041916636
 Ga        32.9601308954       32.9610574906       27.0406956015
 Sb        31.4703587238       22.5257580645       25.5044826342
 Sb        31.4770899834       22.5174914973       31.4807400245
 Sb        31.4629508245       22.5371944042       37.3668395520
 Sb        37.5042847731       31.4534878240       40.5146854582
 Ga        32.9717591523       32.9643579373       33.0410541213
 Sb        31.5020699082       22.4803052953       43.3073886507
 Ga        29.9951690514       15.0263480274       12.0004590904
 Ga        29.9962825502       41.8466634585       14.9635598787
 Sb        31.4058569776       25.5719136513       10.6008588171
 Cl        36.7645529022       30.6531589892       46.7213214389
 Ga        26.9595504265       41.8372024531       29.9271004280
 Sb        31.4807633619       25.4640972824       16.6040782208
 Sb        31.4698105337       25.4901134611       22.5404614340
 Sb        31.4786851610       25.4833789756       28.5160803436
 Sb        31.4688942855       25.5356313083       34.4341297609
 Sb        31.4787719749       25.4776799034       40.4001656233
 Ga        35.9980650395       24.0651901821       38.8832594339
 Cl        31.2219838918       25.1137153250       46.1674261352
 Cl        31.2386620895       28.6812849795        7.9345324037
 Sb        31.4226880318       28.4447077162       13.6380507575
 Sb        31.4546690174       28.4624514629       19.5932506419
 Sb        31.4774808873       28.4465180694       25.5525376765
 Sb        31.4691899739       28.4985773969       31.4737177291
 Sb        31.4873559237       28.5076082206       37.4517111122
 Sb        31.4855119278       28.3496728169       43.4479529918
 Ga        30.0039439145       14.9568163559       18.0661662986
 Ga        29.9289646006       41.8361978433       21.0270023742
 Sb        31.5270705452       31.5065927211       10.6044367248
 Sb        31.4327559212       31.3988207944       16.6178737656
 Ga        35.9257923004       18.0735051432       32.9531395705
 Sb        31.4443721616       31.4141420204       22.5855369715
 Sb        31.4698375757       31.4613317596       28.5100493095
 Sb        31.4874833282       31.4569119342       34.5086381545
 Sb        31.5112861254       31.4535186587       40.4782122033
 Cl        31.1761539702       31.1029086752       46.0983316889
 Sb        34.8650180193       40.6552056138       10.4482401309
 Ga        29.9209300473       41.8403952460       26.9521292558
 Cl        31.4665998502       34.5212290233        7.9558008309
 Sb        31.4534932563       34.3804070653       13.6861819398
 Sb        31.4620950266       34.3813947082       19.5663791900
 Sb        31.4516943486       34.4117726329       25.5334719095
 Cl        34.0771316411       13.6843230027       13.7480743498
 Sb        40.7542407668       10.3956292874       34.9158529423
 Sb        31.4743410588       34.4339888444       31.5312646887
 Sb        31.5109298988       34.4700134118       37.5015332304
 Sb        31.4113662151       34.3394299775       43.5980513025
 Sb        34.4913810248       13.4216129939       19.5480394658
 Ga        44.6503739716       36.0889870911       18.0812250748
 Sb        40.5261427022       22.3784491261       40.4632237992
 Ga        30.0001574191       15.0331471530       24.0055823142
 Ga        29.9992334321       41.9219810593       32.9667171464
 Sb        34.4835862092       13.5027856288       25.5427072479
 Ga        36.0885955388       44.6490795003       18.0804692073
 Cl        40.3125114014       22.2726811009       45.8265503002
 Sb        31.5555107967       37.3892531432       10.7374772441
 Sb        34.4594519821       13.5813047786       31.5098993661
 Ga        35.9337629422       23.8400393464       44.6597291909
 Cl        39.5440853120       26.4970261292        7.2050917407
 Sb        40.4597193844       25.4505988902       13.4849506650
 Sb        34.5192595859       13.5981120295       37.4281438914
 Ga        44.7274186675       42.0111424498       23.7475441237
 Sb        40.4212827769       25.4922913494       19.5583763955
 Sb        40.3451909695       25.5272435866       25.5290853273
 Cl        28.0054035788       10.6933532176       10.8037684876
 Sb        40.4011087523       25.4961258027       31.4553640885
 Sb        40.4721662969       25.5054740478       37.4373188220
 Ga        35.9239512339        9.3528908515       36.1686348440
 Ga        44.9661527031       24.0918605400       18.1602573191
 Ga        29.9991429106       42.0019180931       39.0409321489
 Ga        33.0406748175       33.0313778712       39.0428150822
 Ga        32.8061061189       32.7210122550       45.0444758913
 Ga        42.0118705651       17.9984672005       21.0360428879
 Cl        43.2310180142       16.7254255307       37.3178666558
 Cl        40.2671039739       16.8080169361       16.7971469087
 Cl        37.4142171686       35.1323503444        8.1851394271
 Ga        38.9713922794       29.9265459561       42.0094301384
 Sb        34.9290644108       43.5923806102       13.2910955844
 Sb        40.5168730371       16.4869687778       22.5261935038
 Sb        37.4434498572       34.4490653691       13.6499248885
 Ga        27.0397346236       41.9178756043       35.9977873295
 Sb        34.4975566064       43.2444715254       19.4835853470
 Ga        32.9698316156       35.8524394621       12.2298677914
 Sb        40.4265840909       16.5429574950       28.4999653975
 Sb        37.4064433737       34.4401101607       19.5675422257
 Cl        34.3019520524        7.7695360280       25.7508008175
 Sb        31.4561828026       37.4112555545       16.5810230960
 Ga        38.9627129758       23.9842809075       17.9968707919
 Sb        40.4411161605       16.5534159458       34.4967660697
 Sb        37.4067796641       34.4393047637       25.5529402931
 Sb        28.5656388929       34.3947905837       10.6651090658
 Sb        31.4286388880       37.3333309503       22.5367711555
 Sb        31.4879292243       37.3999554501       28.5324168466
 Ga        26.9601095882       41.9270284771       42.0018964771
 Ga        38.9660590021       41.8504083591       23.9959715282
 Sb        37.4665730245       34.4909582091       31.5105328338
 Sb        28.4596890380       34.4224928120       16.6069997657
 Sb        31.5154922774       37.4555742469       34.4914025043
 Sb        31.4785234377       37.4236563270       40.5632853224
 Cl        30.6855707833       36.6215682872       46.8072545431
 Ga        32.9484726005       35.9155973689       18.0798136060
 Sb        37.5210074789       34.4990746892       37.5161786028
 Sb        34.3639851461       43.3356851609       25.3990814159
 Cl        31.7731851465       40.1264977651        8.1368584097
 Sb        31.6175901232       40.4617374589       13.5080789470
 Sb        31.4514937067       40.3560238767       19.5582282181
 Sb        31.4144360026       40.3158700106       25.5106701108
 Ga        32.9540732403       35.9129233291       24.0679724093
 Ga        35.9250907267       27.0395483385       12.0635862512
 Ga        39.0441697648       36.0003164573       36.0069205010
 Sb        31.4875804968       40.4151433626       31.4898857812
 Sb        31.4819297322       40.5142162644       37.5190292007
 Cl        31.0608447902       40.1313416172       43.4414181306
 Ga        30.0024703929       15.1171688269       29.9944743210
 Ga        30.1589121071       35.8449390489        9.2741821764
 Ga        32.9732104723       35.9309451271       30.0739789751
 Ga        44.6438099863       35.9294109357       23.9176991731
 Sb        31.9744135379       43.5778117971       10.3206881848
 Sb        31.5631925020       43.2914071505       16.5139400784
 Sb        31.4523467848       43.3193137871       22.5110400371
 Sb        31.3841305048       43.3339248628       28.4363154017
 Sb        31.4068683228       43.5269531064       34.4079301465
 Cl        31.0718872624       43.4380612148       40.1722989696
 Ga        33.0369928921       35.9978875204       36.0172983530
 Cl        40.2806254629       37.2353366492       37.2024492016
 Sb        37.3905601150       28.4934937876       25.5443949652
 Ga        35.8440707087       41.6757034195       14.7129508810
 Cl        31.7297196005       45.8233756586       13.6794049446
 Cl        31.6310868580       45.9264415779       19.5793685793
 Cl        31.3935692984       45.9748640995       25.4263087070
 Sb        34.8682313195       13.2883490082       43.5678909466
 Ga        32.9683041746       35.9195881317       42.0899141489
 Cl        45.8928243662       22.2220871964       40.1910801731
 Cl        31.1243277888       46.0815963133       31.1377525253
 Cl        30.4894058225       46.8469772058       36.5115076420
 Cl        29.4296774824       11.3515671863       46.5575974372
 Sb        28.4499767534       34.3807876472       22.5482395288
 Ga        36.0018661879       17.9998473249       38.8775146002
 Sb        28.5137349221       34.4384828184       28.5164089827
 Ga        38.9611883655       42.0043701315       29.9945013651
 Ga        35.9290624056       41.7567864012       21.0375457533
 Sb        28.5125086319       34.4313916068       34.4979743233
 Ga        32.8966472559       29.9389662991       12.1493170041
 Ga        27.1278210835       44.8826928849       15.0371566531
 Sb        28.5070573593       34.4100354338       40.5095784304
 Ga        41.8405629018       32.9689086845       24.0772232086
 Ga        35.9280814933       26.9429306326       18.0687408449
 Ga        32.9544280854       29.9256302673       18.0876138461
 Ga        32.9604571289       29.9291862053       24.0690962199
 Cl        34.0049947298       16.9050638378       10.5842728569
 Sb        34.3869255615       43.5365364129       31.3978626796
 Sb        40.5323743036       25.3484373462       43.4492185294
 Zn        27.0444898646       44.8835990375       21.0398718832
 Ga        32.9662581340       29.9958964028       30.0030525970
 Sb        34.4952000814       16.4676724544       16.4915017418
 Cl        45.8170464954       31.6858349013       13.7765584430
 Ga        29.9374449459       15.0421306906       35.9258574282
 Ga        41.9326436243       32.9556909664       29.9999757674
 Cl        46.1251624454       31.2707485249       25.2335526854
 Sb        34.4991201987       16.5009189452       22.5187763880
 Ga        35.9258055336       26.9665233645       24.0606263554
 Ga        30.3147017808       44.7246971331       11.9098906380
 Sb        40.4248122664       28.5933436528       10.5302747515
 Cl        34.0409345236       43.4627636324       37.1140790608
 Ga        29.9984461472       14.9602058165       41.8424067597
 Sb        40.4012890571       28.4450053580       16.5710889988
 Sb        40.3317812070       28.4787380789       22.5760352257
 Ga        44.7989149776       24.1586057354       24.1606352882
 Ga        44.7190314479       24.0650280303       30.0045119636
 Ga        41.9196108360       26.9709324577       29.9973816276
 Ga        35.9325827895       42.0062508639       32.9695937377
 Ga        44.7344114469       23.9001237627       35.8548902889
 Ga        38.8929684199       23.9980064230       24.0015757846
 Sb        40.6336061478       16.2587872058       40.5417931847
 Cl        37.1278705504       34.0258598380       43.4740614263
 Sb        37.5043724374       25.5014036599       40.4060462951
 Ga        35.9274599904       35.9266410889       27.0512064055
 Zn        26.9655067083       44.8890756868       26.9505980598
 Ga        29.9321482276       38.8174734620       24.0005541601
 Ga        36.0058100907       36.0040350417       33.0414026313
 Sb        28.5011807771       22.5445470628       22.5644566594
 Ga        44.3321910549       33.0272411642       14.7952358354
 Ga        35.9301177976       26.9763429817       29.9982233129
 Cl        36.6706413810        7.2019562473       23.3448225963
 Cl         7.4903542192       11.1991061754       24.6560907122
 Ga        27.0318157338       21.0220462020       15.1139688659
 Cl        40.2523382362       19.8996243071       13.7125402601
 Cl        37.2248065238       37.4014170926       10.8450247426
 Cl        37.2549824172        7.9576539870       28.9078570513
 Cl         8.1467521993       13.6766433519       22.3198837863
 Cl         7.1955408078       14.4025697363       27.4616985285
 Ga        27.0406111843       21.0307095782       21.1032332834
 Sb        37.4517565163       37.4170794898       16.5510595102
 Cl        37.3488317455        7.9955547397       35.3230703803
 Cl         8.0667206803       16.6401847417       19.0573926075
 Cl         7.8629426676       16.8677905693       25.0504979616
 Cl         7.2013475113       17.3201222983       30.6418105168
 Ga        27.0344551293       21.0352101115       27.0398403018
 Sb        37.4224807062       37.4159783757       22.5424023473
 Cl        43.4027005181       13.8768538559       22.9481350800
 Cl         8.2014449866       19.2452067364       16.5695923212
 Cl         8.0376719848       19.5947495809       22.3416922644
 Cl         7.7679502023       19.7149759602       28.2613411776
 Cl         7.1152093611       20.5555044966       33.4735483104
 Ga        26.9646247988       21.0326261704       32.9640049159
 Ga        26.9446920503       44.7210681379       32.8768943319
 Cl         8.1596849970       22.2447456618       13.8031285810
 Cl         8.0579069730       22.3650094750       19.6246786257
 Cl         7.8554231724       22.7374948946       25.2470765852
 Cl         7.8826311331       22.8998166034       31.1529926616
 Cl         7.2155529636       23.3689166132       36.7115152550
 Ga        26.9617760064       21.0266636452       38.8866979375
 Ga        44.6488219377       33.0370282318       21.0339621149
 Cl         7.4578443272       24.5788969034       11.3482119121
 Cl         7.9095425560       25.0691183380       16.9612324597
 Cl         8.0197508680       25.4276209681       22.5808765886
 Cl         7.8945550605       25.5010588372       28.5507406429
 Cl         7.7479613384       25.7508105477       34.3184124517
 Cl         7.2169514221       26.5072061031       39.5539634482
 Ga        27.1309272410       21.1136763406       44.6530043262
 Sb        28.4991935199       22.5265471991       28.5277731988
 Cl         7.2063995628       27.4417344257       14.5091819558
 Cl         7.9216536311       28.1020557805       19.9340314521
 Cl         7.8841247852       28.5821902517       25.4655113932
 Cl         7.8683118892       28.8312856097       31.2756871903
 Cl         7.9517561822       28.9132260451       37.1662451298
 Cl         7.4724737167       29.3540776389       42.7705823015
 Sb        34.4613064354       16.5221729175       28.4916596871
 Sb        28.4654164277       22.5251335210       34.4343144356
 Cl         7.1395534599       30.4745989589       17.5705672904
 Cl         7.8937824481       31.1745736615       22.8634539061
 Cl         8.0240791595       31.4877296679       28.5814007827
 Cl         8.0715397109       31.6371598674       34.4257131153
 Cl         8.1914262731       31.7007781342       40.3224710183
 Sb        34.4612944827       16.5739903688       34.4503127365
 Sb        28.4784197343       22.5380951983       40.3485884887
 Cl         7.1194785268       33.5071057517       20.4896971923
 Cl         7.9108613510       34.1127553056       25.9085868942
 Cl         8.0587426442       34.3741667693       31.6470857193
 Cl         8.0664890584       34.9651680094       37.3610079190
 Sb        34.5121541318       16.4968170491       40.3414723893
 Sb        34.4333193051       10.5549115357       28.5684494569
 Cl        28.5501025891       22.4800638984       45.9406911919
 Cl         7.1471429773       36.4995838066       23.5275871654
 Cl         7.8940770684       37.0363113974       28.9498477992
 Cl         8.2138286917       37.4421431558       34.7417140239
 Cl        34.5618140578       16.4767048973       45.8091228898
 Ga        38.8838579138        9.0333288628       27.2780975468
 Cl        28.4859563035       25.4173543443        7.9155895133
 Cl         7.1950120892       39.4880338205       26.5740222002
 Cl         8.1556387225       40.1908803443       31.7640140507
 Cl        33.4432759268       20.4539201090        7.1972577861
 Ga        39.2970579138        9.6726455217       33.0392586868
 Sb        40.4290561617       28.4820347197       28.5074418862
 Sb        28.4399871245       25.4807306997       13.6542454962
 Cl         7.4567158676       42.6571245013       29.4348197265
 Sb        34.4646480897       19.5124987977       13.4503168423
 Ga        35.8453165814       44.7217502885       23.8373035125
 Sb        40.4947007961       28.4905524579       34.4566170262
 Sb        28.4971867176       25.5111754450       19.6053266033
 Sb        34.4568169728       19.4806115938       19.4977011525
 Ga        35.9982162877       27.0397876883       35.9391455302
 Sb        40.5315986013       28.4796642323       40.4821550936
 Cl        39.5627316272       27.4109211842       46.8024663781
 Sb        34.4372048542       19.5008232210       25.4965632812
 Cl        35.1121511624       45.9906993610       16.7278298736
 Cl        40.2570221258       31.7240671639        8.1806484658
 Sb        40.4839265359       31.5793217697       13.5459738883
 Ga        36.0008780988       26.9528833935       41.9312642159
 Ga        33.1384648705       39.0493288285        9.5944516668
 Sb        40.5798129051       40.5179540323       16.2743180964
 Cl        45.9259152001       31.6177405055       19.6300410367
 Ga        35.8569695239       12.2389343036       39.2100928168
 Cl        43.4473050187       19.9671398219       16.9216220521
 Sb        40.5193642439       19.4927389720       19.5227347677
 Sb        37.4470060690       37.4504324600       28.4974675473
 Cl        37.0707462917       10.5240060912       19.9651910886
 Ga        32.9557304905       38.8853419953       15.0510267739
 Ga        32.8937226691       38.8110628059       21.0381390632
 Sb        40.4390002263       19.5192996162       25.4823906526
 Sb        37.4997754323       37.4984670268       34.5208009097
 Sb        37.4180518425       10.3846327981       25.6243230746
 Sb        28.4209736084       10.5487512142       22.5930881628
 Cl        34.3570784496       45.9441973576       22.3537576556
 Sb        40.3691821741       19.5666915788       31.4573252549
 Cl        37.1928117293       37.2324898455       40.2947367091
 Sb        37.4973564177       10.7005143534       31.5685361714
 Ga         9.2719418097       11.9102440166       23.7537873317
 Sb        31.4843516312       13.6020458163       34.4339069349
 Ga        42.0877756303       32.9579340897       35.9328524939
 Cl        34.0502308091       46.0904179876       28.0822669709
 Ga        26.8018187500       44.9007976177       38.8942042088
 Cl        37.1502424474       10.7234611283       37.4888182328
 Ga         9.6001857236       14.7190841860       20.9658647708
 Ga         9.1063487923       15.0363948287       26.8800301350
 Ga        26.9575773217       23.9961679230       12.1507445278
 Ga        29.9959235197       11.9945287304       21.1126076813
 Cl        45.9736235873       28.5823527570       22.5792737657
 Cl        33.4789616682       46.8410210832       33.4963185260
 Ga         9.3530922639       18.0020949990       17.9899728266
 Ga         9.2826822817       18.0712461643       23.9115933254
 Ga         8.8773922900       18.2372309744       29.7596891955
 Ga        27.0376482591       23.9930140963       18.1474490476
 Ga        32.9601886310       38.8915965513       27.0388396507
 Ga        38.8800993222       24.0081169229       29.9973748734
 Ga        41.9235344218       26.9706444515       18.0726191958
 Ga         9.5929199891       20.8729665512       14.8759374505
 Ga         9.3512681233       20.9577178093       21.0309563600
 Zn         9.0474107518       21.1043480626       26.9554048399
 Ga         8.9497607337       21.2746703973       32.7320781156
 Ga        26.9809815639       23.9995923223       24.0735669102
 Ga        33.0399998623       38.9703575135       33.0393296567
 Ga        29.9971412481       12.0783545591       27.0451567651
 Ga         9.2642998467       23.6765975903       11.9955325112
 Ga         9.2798889779       23.8417384562       18.1553329943
 Ga         9.2753896625       23.9994778337       24.0697394666
 Ga         9.2713545858       24.1589683088       29.9048405865
 Ga         8.8815725856       24.2371492906       35.7652511376
 Ga        26.9737414219       23.9973493760       30.0010552870
 Ga        32.9684922541       38.9665505801       39.0478596353
 Ga        30.0188894140       12.1426722255       32.8950443969
 Cl        27.3699392811       14.4227825563        7.2022559228
 Ga         9.1078783560       26.8002801931       15.1163808086
 Ga         9.2778876104       26.8762020074       21.1913084640
 Zn         9.0482085578       26.9700373117       27.0467293005
 Zn         9.0443295343       27.0503643791       32.9626205825
 Ga         9.1077672211       27.1299281030       38.8925793975
 Ga        26.9732625534       23.9992744346       35.9258206874
 Sb        28.6107612438       10.6254650636       34.4436542705
 Ga        38.9596030903       24.0657917745       35.9251924765
 Sb        28.5275340748       13.4616281087       13.5530515538
 Ga         9.0242338256       29.8261306051       18.2262653660
 Ga         9.1978798362       29.9039636639       24.1593288108
 Ga         9.2750367414       29.9997342764       29.9995914728
 Ga         9.3497283676       30.0878751072       35.9343781410
 Ga         9.2720468316       30.2399810537       42.0842650755
 Sb        34.4437129802       19.5548424709       31.4444105190
 Cl        28.2872578225       34.2486072319       46.2312582576
 Sb        28.4858353452       13.4794150480       19.5826635895
 Ga         8.9611753491       32.8033461189       21.2059909758
 Ga         9.2771965715       32.8790367973       27.1252241866
 Ga         9.3550150328       32.9704101034       33.0453646976
 Ga         9.6692399037       33.0366497789       39.2863585679
 Sb        34.4811653169       19.5212913609       37.4128838461
 Ga        29.9299558710       35.9231960095       15.1138944292