     460
 i =       48, E =     -3835.7483956474
 Cl         3.2025571255        9.4599896754       18.4190968380
 Cl        18.4409035415       24.7103024478       24.7350928547
 Cl         6.2867880304       18.4416470143        6.2858106143
 Cl         3.1963453131       24.6169629238       15.4966244293
 Pb        12.3801539713       18.6462188763       15.4766642048
 Se        12.3884187151       21.7364941120        9.2632235020
 Se        12.3533304967        6.0436756740       18.6502311541
 Pb        18.5014823313       27.8879892173       12.4020461182
 Pb        12.4023737906       21.7743363581       12.3362406660
 Pb        15.5001194123       12.3808014245       18.6193710595
 Cl        24.6826724854       21.5731605219       21.5707778111
 Pb        18.5014100740       18.5982566476        3.1115580425
 Pb         6.1196481423       18.6375361184        9.1958322101
 Se        12.3463543492       18.6572611772       18.6529880785
 Se        12.3638699614       21.6982630531       15.5060803125
 Se        18.6009766303       27.8837643478       15.5018253134
 Pb        18.5161782868       27.8980536450       18.5110153143
 Pb        12.3728646237        6.1021371690       21.7918574081
 Cl        21.5438557952       12.5873439608        3.1974342961
 Se         6.0480046675       18.6477854839       12.3519587962
 Pb        12.3870179089       18.6371881462       21.7253455512
 Pb        12.3910899482       21.7587588357       18.6011947961
 Se        27.8721813624       12.4040342711       15.4979958241
 Se        15.5000915816       12.3605626998       21.6987404552
 Pb        21.7788010230       12.3812579568        6.0860981980
 Se        21.7379756014       12.3906429745        9.2609709441
 Se        12.3901905353       21.7338133498       21.7484375728
 Pb         6.0634070325       18.6478924267       15.4910048037
 Cl        18.4498950550       21.5597921871        3.1933726396
 Se        21.7381497712       21.7390883376       18.6096015475
 Pb        21.7376982248       21.7580981384       21.7392706792
 Cl        21.5718935159       21.5704770910       24.6848301018
 Cl         9.4282691709        6.3155725134        9.4293125700
 Pb         9.2143392560        6.1074475342       12.3663321561
 Cl        18.4238809607       27.7965748117       21.5649242360
 Se        15.5000503067        9.2971300907       12.3700132212
 Se        24.9528408646       18.6475416113       18.6453734282
 Pb        15.5002696295        9.2996002327       15.4817871148
 Se        12.3534985633       18.6422745100       24.9580556651
 Pb        15.4996540325       15.5271913045       15.4722847217
 Pb        21.7269843973       21.7762548858        9.2239323761
 Se        21.7349849705       21.7401081738       12.3900897795
 Pb        12.3789221727       21.8046680944       24.8939078426
 Cl        12.5495547270       27.8065178626        9.4407503517
 Se        15.5001389832       15.4984926283       18.6389251888
 Pb        15.5002096852       15.5183891951       21.7000754954
 Pb        18.5943316755       24.9357152671        9.0551695749
 Pb        24.8906509693       18.6338325479       21.7862645529
 Cl        24.7141808690       18.4382682525       24.7139959277
 Se        18.6557664574       24.9553718620       12.3742742602
 Se        27.8711908402       18.5961060764       15.4974034498
 Se        15.5000682744       15.4942899715       24.9092460451
 Pb        15.4999971931       15.5047442584       27.8636958302
 Pb        12.3767294069       12.3805681796       15.4865523399
 Pb        15.5001107177       18.6457098611       18.6131577696
 Cl        12.5774495510       21.5357146296       27.8073083814
 Pb        15.5002206731       18.6498435437       24.9455521448
 Se        27.8721355940       15.5018924465       18.5959692389
 Pb        21.7615304457       18.6551021205        6.0880360494
 Cl        24.6852556463        9.4272377193       21.5727209839
 Se        12.3462555552       12.3458290864       18.6542370047
 Cl        24.6090423062       15.5118531679        3.1885642297
 Pb         9.1895232635       15.5141346962        3.0937191847
 Se         9.2496113431       15.4946323490        6.0565234434
 Pb         9.3004240399       15.5178133509        9.2674285002
 Se         6.0473272593       18.6479510372       18.6446505261
 Pb        25.0294224255        5.9698658970       15.4980434717
 Pb         6.1095804864       18.6343754490       21.7856345186
 Pb        27.9006766229       15.5026400936       21.8253783467
 Se        15.5001697043        9.3013886160       18.6396705177
 Cl         6.2861810973       18.4390563907       24.7133513435
 Pb        15.4997171010       27.9290990203        8.8411402624
 Pb        15.5002015092        9.2954193555       21.7048117126
 Se         9.3042120453       15.4998933805       12.3633378993
 Pb         9.2963077830       15.5169072856       15.4830748419
 Se         9.3042262661       15.4987041499       18.6344834952
 Pb         9.2962651685       15.5082721064       21.7021957016
 Se         9.2516077482       15.4984517308       24.9449609744
 Cl        24.6088660544       27.8117688144       15.4888028167
 Cl        24.7159704774        6.2850634399       18.4369558579
 Cl        21.5351098549       18.4287134767        3.1986619087
 Pb        24.8906612681        9.2140128521       12.3660916507
 Pb        25.0178886082       15.5107238310        5.9560071634
 Pb        21.7259418372       12.3926081510       12.3660828349
 Pb        27.8912323745       12.4709902030       18.5290054455
 Cl        27.7978486310       12.5804690280       21.5402986024
 Pb         9.1728911315       15.5012831137       27.9014828785
 Pb        18.6164823524        9.2697679916       18.6135354990
 Cl        15.4990472223       27.7464828685        6.3329635541
 Pb        12.4840049332       27.8981768729       18.5110684099
 Cl        27.7911408529       18.4244322070        9.4557098898
 Cl        12.5763854544       27.7968266071       21.5649393187
 Pb        21.6992872466       15.5177657866        9.2676959387
 Cl        12.5490826153       21.5590264900        3.1928802205
 Pb        12.4986010433       27.8880656158       12.4022210791
 Pb        18.5942167170       21.9447501077        6.0636094437
 Se        21.6960177136       12.3655262230       15.5014831374
 Pb        21.7298387203       12.3879875336       18.6122096325
 Se        21.7399900235       12.3881021378       21.7418623856
 Pb        12.4671950591       12.4670583312       27.8944784714
 Se        15.5000485826       18.6300627910       21.7029085095
 Pb         9.1897305893       27.9065240987       15.4854037544
 Pb         6.0609924257       15.5065315193       18.6351512044
 Cl         9.4642066045       18.4283924127        3.1982171101
 Pb         9.2378218218       18.6549692103        6.0875847358
 Se         9.2648546371       18.6101824011        9.2595195371
 Se        15.5002854850        3.1221976974       18.6047918130
 Pb        24.9366456354       18.6476588218       15.4916599275
 Se        18.6112022413       21.7363155539        9.2636396196
 Pb        18.5974771909       21.7742978065       12.3362305587
 Pb        21.7883110704       12.3724206838       24.8956487695
 Cl        21.5424885110       12.5781421357       27.8011114096
 Cl        12.5592495012        6.2649469051        6.2896480501
 Se        12.3438059099       18.6259150311        6.0439720719
 Pb         9.2807396788       18.6387865849       12.3611470074
 Se         9.3042314356       18.6366240169       15.4998518111
 Pb         9.2741966217       18.6343098303       18.6071393902
 Cl        27.7959873123        9.4599864487       12.5774853208
 Pb        27.9007505159        9.1747226510       15.4970410861
 Se        18.6361961899       21.6980604073       15.5063345670
 Pb        18.6089523210       21.7585657452       18.6012922424
 Se         9.2517731552        6.0550634793       15.5017105406
 Pb        18.5972306849       18.6636032934        9.2253498645
 Se        15.4998532620       24.9172921293        9.3013147656
 Pb        15.4999664372       24.9481235227       12.2622850296
 Se         9.2604833303       18.6055325111       21.7412533790
 Pb        12.4678621208       18.5410750154       27.8936025431
 Pb        27.8887740728       12.4721128305       12.4589948983
 Se        18.6099484173       21.7335834137       21.7486361479
 Pb        18.6215018131       21.8044813948       24.8940056488
 Se        24.9519057860       18.6476197785       12.3526289495
 Se        15.4999540006       24.8988213887       15.5471412540
 Cl         6.3843057683        3.1932899638       15.5016491926
 Cl        21.5349670988       27.8010652100       12.5714153539
 Pb         9.2704050655       12.3881869997       18.6120052228
 Cl        18.4228350846       21.5354666227       27.8074646254
 Pb         9.2119830561        6.1046984883       18.6273944899
 Se        12.3534498645        6.0420500278       12.3577805289
 Cl        21.5423225226       18.4200524508       27.8004798774
 Cl        12.2201839583       24.6954964651        6.3049145605
 Pb        15.5001635086        3.0945894236       21.8305081703
 Pb        18.6245119650       24.9189243227       21.7867783974
 Cl        27.8036647114       24.6167239860       15.4987582335
 Pb        21.8103031207       27.9063228869       15.4855274336
 Cl         9.4292066929       24.6870357101        9.4335224410
 Se        18.6530170299       18.6611042421       12.3387669995
 Cl        27.8061081097        6.3864041485       15.5003048047
 Pb        21.7376187763        9.2609423362        9.2422623967
 Se        15.5001306242       18.5844829003       27.8818980848
 Cl         9.4274128995        9.4259873498       24.6871325908
 Pb         9.2382349915       24.9120350970       12.3451926901
 Se        18.6097856499        9.2557287938       21.7443291662
 Se        24.9433969051       15.4999651039       21.7480292555
 Se        15.4996945148       18.5339226574        3.1223700814
 Cl         3.1960547084       15.5016883968        6.3827977387
 Pb        18.5161040963       12.4889500973        3.1018245846
 Se        18.6506990064       12.3326861271        6.0445085940
 Pb        25.0291888104       15.5015265073       25.0302014020
 Cl        24.6770485474       21.5762616304        9.4239769607
 Se         9.2495323780       24.9432780116       15.5052406914
 Pb        24.8799625863       18.6375696006        9.1965468301
 Cl        21.5423189981        3.1996855673       12.5796793619
 Pb        18.6088453443       12.3988283730        9.2412987141
 Se        18.6539647069       12.3467420869       12.3428748749
 Pb        24.8802541867       21.8036288388       12.3627643328
 Se        21.7396788943        9.2585102413       12.3949225228
 Pb         9.2143697731       18.6339131044       24.8923929770
 Cl         9.4276193405        6.3129000061       21.5741292065
 Cl        12.5761705724        9.4348424024        3.2032040333
 Pb        21.8272525931        3.0981976233       15.4989555674
 Cl        21.5427790169        3.1990335629       18.4214933814
 Pb        18.6234612971       12.3808052044       15.4866818725
 Se        18.6540547654       12.3456717422       18.6543668089
 Pb        18.5323976431        3.1064041803       12.4589281176
 Pb        15.4983682150       22.1583669483        3.0704562244
 Cl         9.4579379821       18.4205740055       27.8001708675
 Pb        12.4048846870       21.9451550673        6.0637546399
 Se        24.9434167738        9.2519607255       15.4999473621
 Pb        12.3753655970        9.2131965034        6.0809989692
 Se        12.3901208083        9.2515672040        9.2662932997
 Se        24.9402398281       15.5023973702        9.2506230791
 Se        18.6555244181       18.6259682220        6.0441167863
 Pb        18.6163252217       12.3867285208       21.7304091061
 Se        18.6469749935       12.3495256296       24.9566822977
 Pb        15.4998717503       15.5615818802        3.1366049696
 Cl        21.5705362774       21.5667175921        6.3130661610
 Pb        27.8856597801       18.5428690799       12.4572948339
 Pb        21.7192200767       18.6386199352       12.3615370432
 Cl        27.8036140104       15.5024901171        6.3831593426
 Pb        12.4979470315       18.5974324593        3.1114575714
 Se        15.5001460679       12.3616524336       15.5016022574
 Pb        12.3867910692        9.2746564146       12.3629668768
 Se        12.3646839167        9.3022249073       15.5048984821
 Cl        24.7156409325       12.5670028503        6.2840184103
 Pb        24.8863600797       12.3782518303        9.1983769354
 Cl        27.7914317291       21.5444266266       12.5758832522
 Pb        18.5326532881       12.4668262170       27.8947550044
 Pb        24.8865451207       21.8016974551       18.6220241875
 Se        24.9527125722       12.3548264173       12.3525236525
 Se        21.7485062008       15.4980156711       24.9453605886
 Se        15.5000878179       24.9368839545       21.7866226598
 Cl         9.4288696470       21.5666713203        6.3128178554
 Pb         9.2725886837       21.7763789996        9.2236892355
 Se         9.2648158466       21.7403324737       12.3897875459
 Pb         9.3008467549       21.7323552656       15.4821353205
 Se         9.2618880482       21.7394241980       18.6092625203
 Se        15.5000371639       27.8777442428       12.4656200984
 Pb        15.5000598600       27.8639198543       15.4385936357
 Se        15.4999881731        9.2463862866       24.9486128601
 Cl         6.2861729740        6.2863156741       12.5613249907
 Pb        18.5329909112        3.1054249809       18.5330014946
 Cl        18.4216746670        3.1975468099       21.5465219779
 Pb         5.9710641808        5.9699604917       15.4980205629
 Pb        24.9393684659       12.3644315539       15.4939498573
 Pb         9.2625074171       21.7584395469       21.7390053358
 Cl         9.4284452596       21.5708512778       24.6845189222
 Cl         6.2846137544        6.2854148753       18.4368418467
 Se        12.3634521503       15.4937439755        9.3017566787
 Cl         9.4561559823       27.8028592754       18.4125064783
 Se        15.5000703353       27.8757575055       18.6529598211
 Pb        15.5001464380       27.9053811723       21.8234646701
 Se        21.6958419804       18.6364311675       15.5001576135
 Cl         9.4650123586       27.8014183359       12.5713297342
 Pb        12.3635178491        6.0562424353       15.4947148446
 Se         9.2601882294       12.3883379665       21.7416094900
 Pb        15.4997769138        9.1693029031       27.9054593596
 Se        15.5000172651       15.4965242089       12.3727866135
 Pb         9.2117016651       12.3728569631       24.8953497092
 Cl         3.2052675545       12.5828653667        9.4562236007
 Pb        18.6273107771        9.2079205291       24.8981390363
 Cl        15.5003019813       27.8055579391       24.6484616394
 Pb        12.3797259939       15.5231175167       12.3536340641
 Cl         6.3226202393       21.5763625589        9.4233774530
 Pb        21.7260101946       18.6339836506       18.6074646762
 Se        24.9533237665       12.3539442098       18.6460228939
 Pb        24.8936334339       12.3734824017       21.7881346970
 Pb         9.2211654821       24.9142312558       18.6184995075
 Se        21.7400647436        9.2581994221       18.6120234713
 Se        15.4998914546       21.6975717260       12.3853192407
 Pb        21.7427901509        9.2559203311       21.7441766867
 Cl        18.4502214965       27.8062040182        9.4406416057
 Pb        15.5001659633       21.8438768245       27.9165862514
 Pb        24.8937422765        9.2118823027       18.6264724866
 Pb        18.6199410356       18.6458625652       15.4768354429
 Pb        15.5000515175       21.7557087000       15.4380310891
 Cl        15.5000525041        6.3512019864        3.1946944434
 Pb        27.8971320214       15.5056548093        9.1606209096
 Pb        15.4996347261       18.7379384031        6.0519722814
 Pb         6.1196011502       21.8038807650       12.3622069081
 Se         6.0595728918       21.7499758127       15.4971965029
 Se        27.8713324426       15.5028116750       12.4039747867
 Pb        27.8584117958       15.5070299156       15.4930097704
 Pb        21.7040784099        9.2975503364       15.4922024743
 Cl        24.7128309097       24.7136093577       12.5584943259
 Pb        25.0177398639       25.0438759241       15.4897002362
 Se        15.4998267638       18.6149316276        9.3026609657
 Cl        24.7156912477       24.7160451139       18.4332368448
 Cl        18.4213426468        9.4532131108       27.8025316357
 Pb        27.8973506439       21.8393402272       15.4947555966
 Cl        12.5773596865        3.1928253948        9.4643056774
 Pb        12.4679707743        3.1064939730       12.4589991260
 Pb         6.1134372357       21.8021602780       18.6214079256
 Cl         6.3174573579       21.5736001674       21.5701717000
 Pb         3.1113196058       12.4721476220       12.4587177549
 Se        18.6468817936       18.6420910578       24.9583208014
 Cl        24.6161247638        3.1931030071       15.5013622008
 Pb         3.1027811405       15.5054628195        9.1602195518
 Cl        27.7959796872       18.4222943657       21.5402709587
 Se         9.2604253076        9.2585266767       12.3946965483
 Cl        24.7157369066       12.5627353158       24.7149513569
 Pb        15.5000009696        9.1765805249        3.0949176588
 Se         3.1281138149       12.4042551720       15.4977466727
 Pb        12.3838628927        9.2699667764       18.6133696316
 Pb         3.1089957844       12.4713664762       18.5286725767
 Pb        15.4999768683       18.6619657728       12.3381750174
 Pb        21.8270932029       15.5006430942       27.9019463238
 Pb        15.4999457594        3.0837299608        9.1560975148
 Cl         6.3905163170       15.5107756998        3.1880659962
 Se        18.6539604644       18.6570502130       18.6531495220
 Cl         3.2084058520       21.5444656466       12.5750805898
 Se        12.3905132434        9.2559070360       21.7441384176
 Pb        12.3726657179        9.2081561797       24.8979032530
 Se        15.5000199562       18.6271021139       15.5034622868
 Se        12.3990210314       27.8838602080       15.5018507199
 Cl         9.4244762276       24.6807125722       21.5802289563
 Cl         3.2024208437       12.5811105282       21.5400007593
 Pb        15.5002299654       25.0533504611       25.0367241462
 Cl        24.6159858037       15.4976219942       27.8069385618
 Cl        18.4237858314        9.4349999510        3.2034707911
 Se        12.3470747852       18.6612240304       12.3384825883
 Pb        12.3786349198        6.1062632415        9.1955186848
 Cl        12.5783196442        9.4534702615       27.8024148356
 Pb        18.6245611634        9.2132297877        6.0811329050
 Se        15.4999396854       12.3471272797        3.1241199485
 Cl        21.5718718306        6.3154848526        9.4293924691
 Se        18.6006108632       15.4983822889        3.1162293250
 Pb        18.6219526404       15.5403736964        6.0418578057
 Se         3.1287667215       15.5028156522       12.4035872071
 Se        12.4019885998       15.4960497487       27.8776475498
 Pb        15.4999023110       12.3757024882        6.0459625015
 Pb         3.1417141757       15.5072079561       15.4925470124
 Se         3.1281544447       15.5022734365       18.5954359140
 Se         6.0569620418       15.5005210520       21.7475245312
 Pb        18.6225662214       24.9582357646       15.4596510168
 Pb        12.3837989711       12.3869160530       21.7302414152
 Cl        15.4935856962       24.6665618635        3.2521039476
 Pb        21.7859572089        6.1074022248       12.3664222670
 Se        21.7486774307        6.0548640380       15.5018221394
 Cl        21.5705208537       24.6868358288        9.4335884541
 Se        18.6364535679       15.4936665294        9.3020381159
 Pb        15.5000161641       24.9539395070       18.6247446211
 Cl        27.8058704873       15.4986232111       24.6136524982
 Cl        12.5616511622        6.2805118019       24.7193929513
 Pb        24.9392829154       15.5061140689       18.6356787547
 Pb         3.0997245763       15.5034408982       21.8247631779
 Cl         3.1943075886       15.5008121370       24.6130439950
 Pb        12.3634486788       15.5054105950       24.9438940815
 Se        18.6098641364        9.2515439497        9.2664765346
 Se        15.4999637789       12.3445179325        9.3043862079
 Pb         3.1027715349       21.8395926062       15.4938502103
 Cl        27.7946668727       12.5829990022        9.4565343180
 Pb        21.7885950267        6.1044670474       18.6275254466
 Se        12.4022882327        3.1224071953       15.5039486770
 Pb        21.7616778321       24.9117214949       12.3452986348
 Se        21.7504105901       24.9431161866       15.5054064840
 Pb        15.4999159480        5.9630471802        5.9465896380
 Cl        24.7125715560       18.4417683257        6.2865204165
 Cl         6.3175214384        9.4294551542        9.4265719869
 Pb         6.1095357618        9.2140643110       12.3659087694
 Se        15.5000213360       21.6957118102       18.6553737202
 Se        12.3530895856       12.3497820972       24.9564724502
 Se         9.3042217233       12.3656205713       15.5012783522
 Se        21.7499131897       15.4947225367        6.0567649898
 Pb        15.5000311916        9.3014409548        9.2635063442
 Se         6.0570365370        9.2521715042       15.4996459116
 Se        12.3678156426       15.4999162060       15.5001378281
 Pb        12.4051963433       24.9359231949        9.0552541616
 Se        15.5000390700        6.0383706462        9.2591651254
 Pb         6.1067109412        9.2122617335       18.6262318274
 Cl         6.2871517997       24.7139344762       12.5579106470
 Pb        21.7787394977       24.9138768486       18.6186700409
 Pb        12.3767284871       15.5135052500       18.6195287892
 Pb        15.5002108313        6.0546473687       12.3501905572
 Se        15.5002426782        6.0913795408       15.5056627677
 Cl         6.3150708244        9.4277590259       21.5723651179
 Pb        12.4023630014       18.6635879649        9.2251379145
 Pb         6.0634019119       15.5087680058       12.3520483967
 Pb        15.5002303181        3.1366245952       15.4951200800
 Cl         3.2041028544       18.4229365502       21.5394741948
 Cl        21.5726567152        9.4256287338       24.6874394052
 Cl         3.2051704940       21.5437644697       18.4165585605
 Pb        15.5003320392        6.0555847767       18.6388109428
 Pb         5.9822515701       25.0442733752       15.4890376721
 Se        21.7347623829       18.6101002215        9.2599283179
 Se        21.6958469592       15.4998166031       12.3636521982
 Se        12.3646837560       15.4951151074       21.6978156635
 Cl        18.4406419322        6.2649835783        6.2897566232
 Se        15.5002062683        6.0514874474       21.7534310776
 Pb        15.4999299868        5.9644034190       25.0355650547
 Se        12.3989333123       15.4980264470        3.1161238402
 Pb         9.2961584101        9.2977150927       15.4920093758
 Cl        18.4226472568        3.1928453011        9.4642560438
 Pb        18.6131671019       18.6369738252       21.7255819071
 Cl        15.5003733383       24.6102815216       27.8332602161
 Cl         6.2841291038       24.7164832256       18.4327029888
 Cl        24.6824799061        9.4294321421        9.4268274614
 Se        12.3441633232       24.9554275497       12.3743153351
 Pb        21.6990450772       21.7321753260       15.4824188666
 Pb        18.6214778434        6.1062392726        9.1955326456
 Se        18.6469051885        6.0419435728       12.3578270367
 Cl        15.4993257020        6.3786297622       27.8116468120
 Cl        27.7978850387        9.4596422915       18.4192992551
 Se         9.2602738272        9.2583797563       18.6118487819
 Cl         9.4573493432       12.5786625337       27.8008025053
 Pb        21.7040932490       15.5167220055       15.4834033179
 Pb        12.3776024783       15.5403063193        6.0417725162
 Cl         9.4241080271        9.4194676077        6.3195224473
 Pb        12.3774273690       24.9583655764       15.4597136109
 Cl        15.4994322130        3.1668048478        6.3895106693
 Pb        18.6369457710        6.0560470244       15.4947769356
 Se        18.6473017844        6.0434906995       18.6504001557
 Pb        18.5324060678       18.5408768632       27.8938761395
 Se        24.9404917331       21.7496430018       15.4978531788
 Pb         9.2624123992        9.2609410228        9.2420902690
 Pb         5.9817416975       15.5103751334        5.9554978024
 Se         6.0988101289       15.5012637540       15.4985653723
 Pb        12.4676254474        3.1056645151       18.5329736689
 Se        21.7396231085       18.6052185606       21.7415650718
 Pb        18.6275190706        6.1019720024       21.7920758844
 Cl        18.4384287334        6.2803912100       24.7195807027
 Pb        27.8889055248       18.5409008537       18.5281900774
 Cl         9.4580282166        3.1997047070       12.5796931310
 Pb         9.1732159430        3.0984294954       15.4990079551
 Pb        21.7859677542       18.6334257670       24.8927828429
 Cl        12.5787544499        3.1975797057       21.5464357470
 Pb        15.5000660131       12.3864203359       12.3542470304
 Pb         9.2575175044        9.2561745040       21.7439615301
 Pb        15.5000549031       12.3613054358       24.9446754068
 Cl         9.4559214351       12.5870397126        3.1971161602
 Se        18.6507109883       24.9552930738       18.6673939806
 Cl        21.5757265476       24.6805629270       21.5803542674
 Pb         5.9709461304       15.5024672976       25.0297254684
 Se         6.0596508179       15.5024476468        9.2500490426
 Se        12.3492237071       24.9554873972       18.6673677317
 Pb        12.3757168939       24.9191055614       21.7867598123
 Pb        18.6133380024        9.2745899792       12.3631231764
 Se        18.6356217564        9.3020985095       15.5050691892
 Cl        27.7949223656       21.5432646241       18.4173418671
 Pb        21.8100280968       15.5145616263        3.0939926488
 Se        15.4999040897       12.3949145318       27.8779341651
 Cl         9.4578399100        3.1991961557       18.4215036982
 Cl        21.5438610019       27.8025511249       18.4125965811
 Pb        18.6203453360       15.5230705561       12.3540933643
 Se        18.6325601735       15.4998552309       15.5003111406
 Se        18.5980983076        3.1221303705       15.5039550008
 Se        15.4997489728       15.4531358838        6.1022832589
 Cl         3.2085247060       18.4243317779        9.4550416227
 Cl        21.5728421769        6.3126620529       21.5742663360
 Cl        24.7141775597        6.2862239462       12.5614503713
 Pb        18.6234648814       15.5133629805       18.6193796524
 Se        18.6355831047       15.4949170800       21.6980324432
 Pb        15.4999488079       15.5618268197        9.2446121695
 Pb        24.9366490582       15.5086015255       12.3525238299
 Cl        21.5757523769        9.4195840629        6.3196248110
 Cl         6.2841046812       12.5668267719        6.2836131964
 Pb        15.4997310876       21.8698199637        9.1301059415
 Pb         6.1135354400       12.3781990718        9.1980249132
 Se         6.0473842044       12.3550066625       12.3521832736
 Pb        18.6366699957       15.5052234414       24.9441584170
 Se        18.5979628555       15.4958003324       27.8779992706
 Se        24.9012948725       15.5009525497       15.4991373893
 Pb         6.0609258136       12.3646687775       15.4935888711
 Se        15.4995782159       21.6988667098        6.0824324699
 Cl         6.3911351949       27.8121070054       15.4880259156
 Pb         9.2209811599       12.3810865565        6.0858181148
 Pb        12.4837886551       12.4886605850        3.1017559680
 Se        12.3490855906       12.3326413685        6.0443869618
 Se        15.5001723065        3.1180348749       12.4154404798
 Pb         3.1143083861       18.5429231286       12.4566385762
 Pb         9.2741755960       12.3926391033       12.3658276963
 Se         6.0469287061       12.3544422461       18.6455857512
 Cl        15.4997836930        3.1882815848       24.6211003835
 Pb        15.5001370248       21.7363271113       21.6982839169
 Se         3.1289065596       18.5962864614       15.4967355861
 Cl         6.3839745715       15.4993350473       27.8063968714
 Cl         3.1944039416        6.3865716487       15.5002809037
 Se         9.2618948650       12.3907165481        9.2606724255
 Pb         6.1065530998       12.3740316431       21.7877985958
 Pb        12.3910543897       12.3988403775        9.2411943862
 Se        12.3462390853       12.3467444197       12.3427097412
 Pb         3.1112508518       18.5413397475       18.5274858425
 Cl        18.7776505330       24.6952444082        6.3046014735
 Cl         6.2842906134       12.5634531911       24.7145935548
 Se        15.5001574060       21.7409629599       24.9620681454
 Se        15.4999163284        9.2139169511        6.0630586015
 Cl        12.5595248215       24.7104972029       24.7351424456
 Se        21.6960164775       15.4984769167       18.6347207359
 Pb        21.7038669009       15.5079671448       21.7025294367
 Cl         3.2041523220        9.4600793714       12.5773254926
 Pb         3.0997813087        9.1748830014       15.4968746488
