     608
 i =       58, E =    -23069.5956183668
 Ga         9.3047631411       11.7022308135       17.4449510012
 Ga         9.2994402360       14.6391286494       14.8120173248
 Ga         9.2239021663       14.5612684109       20.1537144483
 Ga         9.3874430502       17.2093174095       11.7623602105
 Ga         9.3844284969       17.2909545948       17.3711688040
 Ga         9.2239388515       17.2835911301       22.8657525694
 Ga         9.2222499748       20.0042757439       14.5656135007
 Ga         9.3852153206       20.0021793791       20.0772234513
 Ga         9.2201315170       20.0705021321       25.5286671150
 Ga         9.2239076595       22.7188374189       17.2862549216
 Ga         9.3835641024       22.7279053465       22.7851048057
 Ga         9.2999118016       22.8774381094       28.3038362607
 Ga         9.2193384035       25.4369229094       20.0032601616
 Ga         9.4583184517       25.5250324403       25.5826429446
 Ga         9.2234121079       28.2212561949       22.7998397590
 Ga        11.7641485092        9.2975281715       17.4425550161
 Ga        11.8422565120       11.8403021295       15.1508804861
 Ga        11.8678996939       11.8661584262       20.0925641554
 Ga        12.1688105322       14.8261628061       11.6130953334
 Ga        11.9252276829       14.5691268091       17.4507102883
 Ga        11.8639128571       14.5618529341       22.7879096565
 Ga        11.7739447140       17.2075634051        9.2963652319
 Ga        11.9327556488       17.3564152271       14.5741991201
 Ga        11.9265747425       17.2790542108       20.0927511524
 Ga        11.8569338458       17.3534920696       25.5129599235
 Ga        11.8653549250       19.9992368631       11.8616077813
 Ga        11.9289049823       20.0120503682       17.2881192187
 Ga        11.9316878073       19.9926706027       22.7891327339
 Ga        11.8488600409       20.0772802607       28.1504892294
 Ga        11.8618486066       22.7140596631       14.5719208350
 Ga        11.9278814215       22.7219311820       19.9982988918
 Ga        11.9259659830       22.7127648731       25.4474015881
 Ga        11.6943269786       22.8732054297       30.7006052762
 Ga        11.8563888637       25.4198699092       17.2826578652
 Ga        11.8714702219       25.4282757470       22.7044495605
 Ga        11.8440010188       25.5076003488       28.1488039621
 Ga        11.8437783951       28.0756223631       20.0055481819
 Ga        11.6031018682       27.9706887233       25.2625467829
 Ga        11.6796034754       30.6186725330       22.7197455265
 Ga        14.6524535678        9.3003223887       14.8142879876
 Ga        14.5728318258        9.2224375494       20.1517691956
 Ga        14.8251105891       12.1645021549       11.6135681373
 Ga        14.5817693789       11.9243832968       17.4483774727
 Ga        14.5674496762       11.8594273231       22.7873925370
 Ga        14.4955911367       14.4979877223        9.3918634659
 Ga        14.6416328945       14.6429786343       14.6370540752
 Ga        14.5737642279       14.5704310378       20.0934144311
 Ga        14.8274534487       14.8271728121       25.1907790773
 Ga        14.5787044705       17.3537120795       11.9286285662
 Ga        14.5822264858       17.2934230984       17.3558834069
 Ga        14.5891126378       17.2918792533       22.7251911641
 Ga        14.4987167966       17.2961554094       28.1439734911
 Ga        14.5601241415       20.0037190806        9.2265996086
 Ga        14.5680432343       20.0190872237       14.5767806344
 Ga        14.5863355576       20.0045913057       20.0112215671
 Ga        14.5743840260       19.9925142319       25.4297323269
 Ga        14.4767419000       20.0058663783       30.7739134452
 Ga        14.5657259805       22.7151769353       11.8620538565
 Ga        14.5658466218       22.7225327703       17.2803104618
 Ga        14.5811401650       22.7132080767       22.7128349122
 Ga        14.5041185929       22.7072249265       28.0744678383
 Ga        14.5566468116       25.4279716257       14.5687658136
 Ga        14.5619742942       25.4210856074       19.9917776286
 Ga        14.5663409246       25.3635682854       25.4278746561
 Ga        14.4118633466       25.5139651522       30.5431256161
 Ga        14.5009680081       28.1367055085       17.2838966639
 Ga        14.4975651125       28.0617150625       22.6991462318
 Ga        14.7324563384       27.9097878071       28.3953382395
 Ga        14.4853040644       30.7707751793       19.9973655811
 Ga        14.6418665514       30.6952507230       25.3518209949
 Ga        17.2184159471        9.3869148712       11.7671401315
 Ga        17.3558828989        9.3858032336       17.3716069673
 Ga        17.3417163596        9.2203095028       22.8063346501
 Ga        17.2069970698       11.7728690044        9.2981764067
 Ga        17.3656871411       11.9296718304       14.5782631239
 Ga        17.2888850695       11.9249374519       20.0870116737
 Ga        17.3562591425       11.8577991999       25.5124762319
 Ga        17.3045098827       14.5827824101       11.9330995402
 Ga        17.3025729125       14.5793290762       17.3550560905
 Ga        17.2937975168       14.5865938350       22.7259431746
 Ga        17.2926562332       14.5555994458       28.1453979025
 Ga        17.2789828665       17.2752241209        9.3939772203
 Ga        17.2892539472       17.2902151579       14.6410613125
 Ga        17.2910183130       17.2900016833       20.0135495971
 Ga        17.2846831360       17.2902362489       25.4140138305
 Ga        17.2070022793       17.2679310974       30.7757263509
 Ga        17.2774442309       20.0130351166       11.9403707246
 Ga        17.2786668420       20.0050319819       17.2954934593
 Ga        17.2859779815       20.0006868116       22.7154676284
 Ga        17.2069935310       19.9878493220       28.0681214254
 Ga        17.2778439599       22.7231153815        9.2254246275
 Ga        17.2213272762       22.7226810155       14.5774174736
 Ga        17.2793773068       22.7143902265       20.0037180431
 Ga        17.2836732293       22.7111598823       25.4215426635
 Ga        17.2072372748       22.7215147115       30.6138957612
 Ga        17.2749189931       25.4315104165       11.8610805707
 Ga        17.2129820507       25.4264515018       17.2803850082
 Ga        17.2812749539       25.4110995809       22.7163809797
 Ga        17.2884663954       25.4193875262       28.1308574862
 Ga        17.2094710341       28.1381612169       14.5728171509
 Ga        17.2085229600       28.0653100245       19.9921484547
 Ga        17.2900080143       28.0630812065       25.5004499629
 Ga        17.1355423218       28.2121713145       30.7838006947
 Ga        17.1990710869       30.7730460494       17.2803517920
 Ga        17.2708112601       30.6090037334       22.7183296085
 Ga        17.2092343695       30.6164132957       28.3776343134
 Ga        20.0679222019        9.2238313932       14.5639051281
 Ga        20.0754312503        9.3912966595       20.0747812521
 Ga        20.0771088234        9.2214890706       25.5213059736
 Ga        19.9967772506       11.8655395591       11.8701151427
 Ga        20.0708270058       11.9304391383       17.2906961055
 Ga        20.0040521631       11.9307141005       22.7882633062
 Ga        20.0718604933       11.8509366868       28.1454785487
 Ga        20.0006468611       14.5448974514        9.2909051422
 Ga        20.0146056345       14.5722418170       14.5821283212
 Ga        20.0099862278       14.5839359757       20.0123636484
 Ga        19.9911389459       14.5762697847       25.4319645183
 Ga        19.9822937218       14.4953597675       30.7760287325
 Ga        20.0040986423       17.2777072616       11.9559988824
 Ga        20.0040853539       17.2832799639       17.2981891820
 Ga        19.9991914696       17.2876272149       22.7150254317
 Ga        19.9237924094       17.2701761500       28.0709349155
 Ga        20.0053857878       19.9935101205        9.3939110822
 Ga        19.9929602572       20.0032409717       14.6431862673
 Ga        19.9952893695       19.9993279112       20.0060588168
 Ga        19.9944676746       20.0002210352       25.4131748037
 Ga        19.9286812128       20.0022222152       30.6121546532
 Ga        19.9324275509       22.7210090782       11.9413071161
 Ga        19.9357206828       22.7180517662       17.2982721326
 Ga        19.9944038805       22.7134120924       22.7203778200
 Ga        19.9994822979       22.7215048392       28.0720420690
 Ga        19.9904806400       25.4947705896        9.2317660044
 Ga        19.9157172068       25.4257846713       14.5808268571
 Ga        19.9804277796       25.4147891771       20.0113645574
 Ga        20.0017349161       25.4207273109       25.4379822584
 Ga        19.9901942550       25.4379563345       30.7802248238
 Ga        19.9847756797       28.1460222734       11.9325767854
 Ga        19.9097919722       28.0670926021       17.2846953164
 Ga        19.9947207206       28.0658890273       22.7853211449
 Ga        19.9285412492       28.0771648334       28.1597627432
 Ga        19.9169648040       30.7739421431       14.5694532992
 Ga        19.9278419771       30.6117647166       20.0063976512
 Ga        19.9306210892       30.7750393318       25.5204106857
 Ga        22.7971729663        9.2239665515       17.2915411819
 Ga        22.7952019829        9.3933404242       22.7958050212
 Ga        22.8690717418        9.2332035642       28.2907180568
 Ga        22.7278119769       11.8643196934       14.5793609851
 Ga        22.7810855099       11.9307180736       20.0053718766
 Ga        22.7175429086       11.9240248779       25.4423602365
 Ga        22.7902425785       11.6994795267       30.6904037851
 Ga        22.7216999756       14.5683621024       11.9367904129
 Ga        22.7281808336       14.5733579349       17.2861997623
 Ga        22.7198335714       14.5881059289       22.7159520458
 Ga        22.6477599200       14.5591085936       28.0716806637
 Ga        22.7199510915       17.2079001903        9.2970221029
 Ga        22.7220373717       17.2744324495       14.6395148525
 Ga        22.7143700328       17.2817925426       20.0030134015
 Ga        22.7099489798       17.2907512386       25.4157403889
 Ga        22.6443366655       17.2912310406       30.6151756047
 Ga        22.7098468023       19.9316715007       12.0027477980
 Ga        22.7093187392       19.9997661076       17.3523493333
 Ga        22.7061530460       19.9997976129       22.7225921651
 Ga        22.7131360014       20.0129058342       28.0718978812
 Ga        22.7019895707       22.6887100211        9.4510838964
 Ga        22.6456144680       22.7119576117       14.6478302596
 Ga        22.6989549651       22.7163845057       20.0678586032
 Ga        22.7148421290       22.7255016696       25.4346266636
 Ga        22.7143959722       22.7192918804       30.7758768206
 Ga        22.6290261077       25.4388618119       11.9461297345
 Ga        22.6409579473       25.4124978673       17.3526561793
 Ga        22.7144122024       25.4275689359       22.7926222705
 Ga        22.7076812087       25.4247941850       28.1468809873
 Ga        22.7179109241       28.3182650666        9.4584177157
 Ga        22.6244655523       28.0745922706       14.6404408832
 Ga        22.6521208199       28.0725901953       20.0790181508
 Ga        22.6561111198       28.1393968910       25.5027775897
 Ga        22.7158038664       30.7780893426       11.8548440708
 Ga        22.6408090131       30.6123287238       17.2995300208
 Ga        22.6442301779       30.7786762325       22.7948391899
 Ga        25.5161373642        9.2222048043       20.0720635006
 Ga        25.5891549803        9.4666759190       25.5860837924
 Ga        25.4392207898       11.8611294381       17.3401657084
 Ga        25.4914665318       11.9319605697       22.7221640939
 Ga        25.2641466391       11.6231911213       27.9822423376
 Ga        25.4338538001       14.5646429324       14.6408424329
 Ga        25.4308192574       14.5748424433       19.9953605799
 Ga        25.4307285499       14.5773288587       25.4230146581
 Ga        25.3422662826       14.7164829867       30.6964980909
 Ga        25.4287975155       17.2711480283       11.9384803760
 Ga        25.4241159278       17.2749782510       17.2939581963
 Ga        25.4060759737       17.2859263235       22.7216050830
 Ga        25.4379204477       17.3633139012       28.0674777391
 Ga        25.4157892419       19.9076151774        9.3015667540
 Ga        25.4233952403       19.9870219991       14.6420680990
 Ga        25.4071520276       20.0010559838       20.0684692403
 Ga        25.4231663660       20.0665387295       25.4365386996
 Ga        25.4382414493       20.0061468927       30.7795792216
 Ga        25.3522884606       22.6394186109       11.9556528125
 Ga        25.3583874442       22.7132885202       17.3628447700
 Ga        25.4177807983       22.7292524811       22.7868936087
 Ga        25.4263312344       22.7156095632       28.1454571477
 Ga        25.3508988985       25.2641020370        9.2222712457
 Ga        25.3512550110       25.4284383083       14.6488950464
 Ga        25.3647926758       25.4314034014       20.0820626682
 Ga        25.4220544634       25.4334108368       25.4945387712
 Ga        25.1038727568       28.4666423887       12.1904232871
 Ga        25.3522653892       28.0792552552       17.3773040352
 Ga        25.3577093594       28.1408875437       22.7890497382
 Ga        25.4297511523       30.6201835433       14.5684912580
 Ga        25.3578506982       30.7747697815       20.0768645304
 Ga        28.3095189732        9.3081115606       22.8853025078
 Ga        28.1464836430       11.8578416187       20.0754851312
 Ga        28.1547157768       11.8633614024       25.5140451375
 Ga        28.1406670334       14.5624179498       17.3561842838
 Ga        28.0710295149       14.5688619381       22.7242071283
 Ga        28.3884316309       14.8035887608       27.9714906005
 Ga        28.1437321588       17.2711491407       14.6491601186
 Ga        28.0685141001       17.2716166325       20.0134979177
 Ga        28.0717072358       17.3505661722       25.4400635960
 Ga        28.3116503791       17.2923530889       30.6241289592
 Ga        28.0518055864       20.0797998176       12.0164567511
 Ga        28.0651757450       19.9438701930       17.3546294445
 Ga        28.0679663479       20.0147177561       22.7849112110
 Ga        28.1411479507       20.0035594856       28.1401274000
 Ga        28.5647257375       22.0640435049        9.4666409670
 Ga        28.0587292765       22.6276561715       14.6546486432
 Ga        28.0574311803       22.7280085014       20.0804487685
 Ga        28.1367929896       22.7246253324       25.4425713690
 Ga        28.1593396820       24.7657493094       11.7673112205
 Ga        28.0435269379       25.4386807406       17.3786932802
 Ga        28.0692862726       25.4385067201       22.7328182801
 Ga        27.8067394280       28.4674056031       14.8981992027
 Ga        28.0478565179       28.1487386833       20.0183865309
 Ga        28.1383333419       30.7758426222       17.2894548405
 Ga        30.6969769275       11.7620162619       22.8869229313
 Ga        30.7765621060       14.4921335698       20.0802036841
 Ga        30.5319336225       14.4836549968       25.5775553569
 Ga        30.7792659015       17.2056728897       17.3642120251
 Ga        30.6109013446       17.2733198230       22.7926172594
 Ga        30.7723817152       17.2093314126       28.2322148407
 Ga        30.7752931007       19.9115372229       14.6631453249
 Ga        30.6133426075       19.9953184288       20.0774702166
 Ga        30.7767213711       20.0060176390       25.5127732902
 Ga        30.7850527564       22.5593430872       11.8542960887
 Ga        30.6121066018       22.7049369522       17.3671737587
 Ga        30.7692524014       22.7330934417       22.7932241568
 Ga        30.6914658616       25.2661127674       14.6487720611
 Ga        30.7048458435       25.5091312277       20.0853384530
 Ga        30.5380436942       28.3157363398       17.2911801284
  P        10.3880525992       10.3550640091       15.9405547983
  P        10.5114791022       13.2353677631       18.7208518354
  P        10.4676034650       15.7151762384       10.4402570582
  P        10.6720661852       15.9470939865       16.0197214360
  P        10.5250923449       15.9715918982       21.4275042491
  P        10.5194037215       18.5957063367       13.2514965796
  P        10.6364217271       18.6432702648       18.7024349772
  P        10.5189092645       18.7088144990       24.1170540606
  P        10.5192988728       21.3013024275       15.9716752803
  P        10.6335186294       21.3584972195       21.4069251941
  P        10.5151369723       21.4627697594       26.8015294688
  P        10.5203121044       24.0208748858       18.6842090701
  P        10.6031798877       24.0885208727       24.1170846505
  P        10.4300032859       24.3509763422       29.5674492134
  P        10.4847192307       26.7590681984       21.4075348644
  P        10.4888498168       26.9527907273       26.9384459099
  P        10.3710510364       29.5738997360       24.2322803798
  P        13.2578748795       10.5176658214       18.7267870505
  P        13.0993364065       13.0973993780       10.4929948184
  P        13.3046376969       13.2990684584       16.0649102675
  P        13.2272936217       13.2202493449       21.4164240277
  P        13.2731375796       15.9575024935       13.2955861398
  P        13.2572925337       15.9402153129       18.7309312351
  P        13.1997744980       15.9783476775       24.0860873898
  P        13.2282901621       18.6010613446       10.5190745470
  P        13.2619345111       18.6370891734       15.9676822623
  P        13.2514079153       18.6536101311       21.3918409472
  P        13.2190331291       18.7027071992       26.7988627078
  P        13.2167294718       21.3312292071       13.2225802821
  P        13.2484371189       21.3451079419       18.6534650021
  P        13.2595828779       21.3600605194       24.0793076617
  P        13.1895039279       21.4368382860       29.5008808203
  P        13.2124109043       24.0445674666       15.9394507288
  P        13.2363080003       24.0640506610       21.3630009902
  P        13.2072514664       24.0879517884       26.7728955989
  P        13.2072020175       26.7493705614       18.6574023514
  P        13.2217129298       26.7371516513       24.0783566626
  P        13.0461013357       26.9365105524       29.5151192451
  P        13.1993762997       29.4510727058       21.3858349081
  P        15.7202944318       10.4629091058       10.4459725538
  P        15.9726994823       10.6623230547       16.0289400981
  P        15.9884018963       10.5246905129       21.4189662129
  P        15.9483707616       13.2614319394       13.3060345653
  P        15.9505972492       13.2576420892       18.7295491520
  P        15.9813145078       13.1962186124       24.0893066584
  P        15.8999750337       15.9174489442       10.6178300778
  P        15.9507253470       15.9454899443       16.0169886435
  P        15.9424186994       15.9387123896       21.3789020553
  P        15.9470577879       15.9644030210       26.8072978108
  P        15.9454560606       18.6441663306       13.2800685545
  P        15.9374763386       18.6447010637       18.6684687516
  P        15.9346516336       18.6440060966       24.0649349149
  P        15.8980288257       18.6666965105       29.4766755550
  P        15.9687519714       21.3121560090       10.5274181333
  P        15.9182020527       21.3428842242       15.9473447110
  P        15.9331718095       21.3522193475       21.3583126535
  P        15.9068495144       21.3657521847       26.7457050118
  P        15.9248537715       24.0584524085       13.2090055474
  P        15.9165450925       24.0495363858       18.6536636198
  P        15.9390993375       24.0512835860       24.0560108178
  P        15.8624825836       24.0772516250       29.3899520450
  P        15.8910759864       26.7833631748       15.9476005153
  P        15.9053459890       26.7401728661       21.3708991490
  P        15.9167490194       26.7241850067       26.7678231267
  P        15.9007476870       29.4728645853       18.6840988062
  P        15.9231158096       29.3411290964       24.0678151705
  P        15.6879445946       29.5459720299       29.6408578173
  P        18.6175140540       10.5095455474       13.2632464611
  P        18.6938923082       10.6429788490       18.7102521610
  P        18.7221931818       10.5206229994       24.1118556374
  P        18.5774331018       13.2237210601       10.5479244160
  P        18.6576308968       13.2525983458       15.9778192077
  P        18.6617013064       13.2490437726       21.3945029109
  P        18.6985922318       13.2313730239       26.8094044965
  P        18.6286880158       15.9383114109       13.2812625780
  P        18.6503334452       15.9372206992       18.6710639495
  P        18.6437009740       15.9356727231       24.0692728311
  P        18.6445456076       15.9414036894       29.4977143622
  P        18.6404468956       18.6375932565       10.6384829182
  P        18.6369962861       18.6410029612       15.9713805246
  P        18.6405189665       18.6422904529       21.3603701737
  P        18.6097107582       18.6543883655       26.7496868634
  P        18.6252536317       21.3471257599       13.2855368481
  P        18.6242589466       21.3449875029       18.6577832664
  P        18.6366661428       21.3521032679       24.0652239841
  P        18.5861413106       21.3577125283       29.3653639148
  P        18.6794071412       24.0484967383       10.5126351903
  P        18.5905797913       24.0589057191       15.9423497055
  P        18.6336451440       24.0574885367       21.3602360345
  P        18.6284503877       24.0642122398       26.7623112664
  P        18.6135380376       26.7834376796       13.2380948608
  P        18.5935814581       26.7347297508       18.6576518790
  P        18.6168591499       26.7431722975       24.0920694703
  P        18.5527597357       26.7573447888       29.5310584452
  P        18.6092166768       29.4731665316       15.9694106868
  P        18.6096317900       29.3449430882       21.3708536901
  P        18.5501858830       29.4673966693       26.8230698219
  P        21.3555400111       10.5103378496       15.9841130580
  P        21.4087911788       10.6422476541       21.4216326525
  P        21.4718032361       10.5096299963       26.8150438667
  P        21.3296679477       13.2097826670       13.2471060071
  P        21.3777343526       13.2502400741       18.6703668675
  P        21.3672721414       13.2639933955       24.0872869744
  P        21.4192153936       13.2176972254       29.5043972237
  P        21.3051715432       15.9388618496       10.5916955717
  P        21.3429703248       15.9255702012       15.9587875567
  P        21.3538110638       15.9356667827       21.3622559533
  P        21.3274812429       15.9547372878       26.7547779122
  P        21.3300607807       18.6240643003       13.3148667599
  P        21.3432745802       18.6348990976       18.6632072506
  P        21.3445765575       18.6412450688       24.0670719208
  P        21.2989262477       18.6480701672       29.3651100119
  P        21.3449857013       21.3295617134       10.6844877888
  P        21.3302298553       21.3496897436       15.9961412706
  P        21.3370145629       21.3444699573       21.3728738766
  P        21.3407827164       21.3513230686       26.7505211456
  P        21.3110327763       24.0534887075       13.2741390407
  P        21.3186337075       24.0363998757       18.6773284829
  P        21.3345867596       24.0535077331       24.0815890254
  P        21.3057156604       24.0271187570       29.4814408521
  P        21.3690350868       26.7821760348       10.5678194673
  P        21.2894636311       26.7268085562       15.9680929949
  P        21.3198434029       26.7295195955       21.4060411693
  P        21.3029861494       26.7555930007       26.8069686904
  P        21.3628964355       29.4910498625       13.2884908760
  P        21.2917323043       29.3585669136       18.6610869281
  P        21.2579876438       29.4832906066       24.1056392098
  P        24.0766315099       10.5018957721       18.7257247890
  P        24.1399288052       10.6289957942       24.1312902190
  P        24.2953734582       10.3983842267       29.6274763670
  P        24.0555184838       13.2047113785       15.9744765159
  P        24.0865934143       13.2563061721       21.3757769254
  P        24.0617955859       13.2600022112       26.7834190008
  P        24.0587405232       15.9409192863       13.2875580096
  P        24.0592945800       15.9367128927       18.6507770866
  P        24.0553324445       15.9391021429       24.0764506874
  P        24.0245926127       15.9756420901       29.3507654266
  P        24.0096070084       18.6272515761       10.5960026921
  P        24.0529013503       18.6544789476       15.9818698452
  P        24.0438722593       18.6382543363       21.3745145336
  P        24.0493101480       18.6700909668       26.7391835469
  P        24.0194598428       21.3333437296       13.3174895873
  P        24.0421475385       21.3527721318       18.7099573153
  P        24.0390957122       21.3599244241       24.0740217658
  P        24.0238504831       21.3107534428       29.4810706582
  P        24.0460966083       24.0748726445       10.6642105797
  P        24.0167136913       24.0584482215       15.9862395635
  P        24.0391205153       24.0600987557       21.4139013421
  P        24.0431406482       24.0489162303       26.7999008465
  P        24.0089164599       26.7439723659       13.2865513927
  P        23.9970036488       26.7434508606       18.7015627877
  P        24.0209311262       26.7855249094       24.1327434465
  P        24.2040441832       29.6617831266       10.5207251423
  P        24.0267629001       29.3865369122       15.9609560533
  P        23.9581056856       29.4780062327       21.3835323131
  P        26.8113392774       10.5097188862       21.4621520716
  P        26.9532901094       10.5220745132       26.9856312624
  P        26.7829106698       13.2135387584       18.7019690340
  P        26.7800765106       13.2439780023       24.1092215873
  P        26.7882366031       15.9346563713       15.9929960558
  P        26.7393682031       15.9410739626       21.3697390273
  P        26.7416309493       15.9706079101       26.7694185927
  P        26.7826612325       18.6384043688       13.2965986437
  P        26.7221859255       18.6373604506       18.6944542027
  P        26.7171444836       18.6657481065       24.0834228044
  P        26.7594500334       18.6246841335       29.4816468434
  P        26.6773007015       21.3300481883       10.6037526709
  P        26.7267584726       21.3365544237       16.0258277192
  P        26.7382152252       21.3605180619       21.4112551815
  P        26.7800746742       21.3583539366       26.7893928159
  P        26.6934762438       23.9739044309       13.3180098450
  P        26.7125885123       24.0646128407       18.7019474194
  P        26.7601393054       24.0708508524       24.0981445743
  P        26.7088925591       26.7458372007       15.9920114393
  P        26.7095564516       26.7966231197       21.3779108893
  P        26.8429007434       29.5548022502       13.1583503815
  P        26.6857614555       29.5035176306       18.6432185678
  P        29.5764367777       10.4599914790       24.3519841192
  P        29.4732943252       13.2185796729       21.4664238210
  P        29.4846728370       13.1058184665       26.9723548559
  P        29.4796402709       15.9284856047       18.7563382764
  P        29.3681002079       15.9264539138       24.1252151544
  P        29.6256745268       15.7811648497       29.5916742425
  P        29.4755971163       18.6345725169       16.0602098582
  P        29.3632510724       18.6383116279       21.4093857695
  P        29.4844134736       18.6033561520       26.7988550827
  P        29.4908920334       21.3446786804       13.3645963836
  P        29.3593082690       21.3496545824       18.7053628173
  P        29.4797739239       21.3193665399       24.0808294734
  P        29.6787651008       23.8801535842       10.3711336074
  P        29.3411049740       24.0466032044       15.9914941322
  P        29.4548798860       24.0487894818       21.3706737204
  P        29.4186841569       26.7840031750       18.6389780081
  P        29.4809828982       29.6559965234       15.8008128171
 Cl         8.0390549286       13.2235994204       15.8764812125
 Cl         7.5418325186       13.6423835944       20.9727028624
 Cl         8.1006414197       15.5509800124       13.2804056798
 Cl         8.0317181076       16.0054130927       18.5815132690
 Cl         7.5459907302       16.3424695868       23.6676279963
 Cl         7.5979600670       17.9936386302       11.0002449549
 Cl         8.0210038760       18.4417778536       16.0668398712
 Cl         8.0287187067       18.7226292463       21.2915174277
 Cl         7.5615665792       19.0786261236       26.3247934857
 Cl         7.4998439382       20.7946502113       13.6985782287
 Cl         8.0207757450       21.1819903457       18.7890793822
 Cl         7.9981300213       21.4485339470       23.9619514118
 Cl         7.5117771832       23.5111785432       16.3972832539
 Cl         8.0217326446       23.8997035858       21.4680416337
 Cl         8.0445192142       24.1857512561       26.6817355140
 Cl         7.5309224669       26.2478951431       19.0794339235
 Cl         8.0585847905       26.6324331893       24.1591422573