     691
 i =      257, E =    -17442.5755914234
 Hg        19.8897202911       26.3890779980       19.8082835737
 Hg        23.2139904464       29.6419266478       19.8833197428
 Hg        26.6140600010       32.6401636186       19.7760484514
 Hg        29.6467703551       36.1663760474       19.4598323523
 Cl        27.6760683698        5.1029809634       18.4412396259
 Hg        36.8707928822       22.7641570864       30.1977031543
 Hg         8.2597970921       13.2858968782       19.7222658946
 Hg         9.8944931026       16.7897982832       19.8117292213
 Hg        13.4355147562       19.8833063553       19.8405589035
 Hg        16.6174780876       23.0994535546       19.8007125457
 Hg        23.1915130550       26.3893741809       23.1892299228
 Hg        26.5311253672       29.7082454922       23.2108819732
 Hg        29.9031118470       33.0781964570       23.2338852641
 Hg        31.6030620493       36.2570982613       22.1041930977
 Hg        23.7348456393       28.9603547253        6.7506953488
 Hg        16.5059145846       13.2012551486       16.7372938914
 Cl        37.7571388437       18.7925996755       15.3003845592
 Hg         9.8931116534       13.0120832442       23.6485242405
 Hg        13.2983094124       16.4833503370       23.0788990136
 Hg        16.6204925042       19.7599220758       23.2073900815
 Hg        19.9121544046       23.0707573180       23.1888858725
 Hg        26.5435265080       26.4948645019       26.5167368313
 Hg        29.9358319794       29.8081778829       26.5256806361
 Cl        18.4094280291       37.7589032602       21.8788213162
 Hg        19.9079206197       16.4725380761       16.4820335952
 Hg        13.4510885292       19.7532424849       13.1644594466
 Cl        21.8495948886       18.2593828771       37.5834270678
 Hg        13.3443847815       13.0529974777       26.4421177723
 Hg        16.6252481869       16.4717313257       26.4417403269
 Hg        19.9071386898       19.7605948368       26.4931396176
 Hg        23.3094803227       23.0952076831       26.4996144188
 Hg        29.8383402951       26.4806044291       29.8272324149
 Hg        32.6789043872       29.6477225833       29.7861234020
 Hg        13.0524637962       34.5617603500       23.6292562931
 Hg        35.1497897582       26.3058034650       29.9728777187
 Hg        23.1768871423       13.2858302106       23.0880939621
 Hg        13.3305177969       10.4696866185       29.5517326341
 Hg        16.3741251080       13.1338007804       29.9453954195
 Hg        19.9037819841       16.3733344659       29.7950597968
 Hg        23.2145738152       19.7626413068       29.7044074900
 Hg        26.5277910348       23.1050268187       29.7913214839
 Cl        20.7807322479       12.4038384999        5.1251972906
 Hg        29.9197183186       13.1543471969       16.3606280250
 Hg        26.5054109042       16.5083126435       23.0773165740
 Hg        32.9720766542       19.6317055217       26.4419485292
 Hg        26.5327187639       19.8004741954       19.7979938825
 Hg        22.7764914015        6.8687293499       16.7749454756
 Hg        26.6750301535        9.7952787786       16.4768113260
 Cl        37.7693926854       15.4479091896       18.5711081977
 Hg        19.9317737953       13.0300557069       33.0993904551
 Hg        23.3246438024       16.3409444002       32.7937448256
 Hg        26.5121956553       19.6340605922       32.9417382454
 Hg        29.9640137526       23.1054920558       32.7138838523
 Hg        23.2050986512       23.1061508005        6.8774229566
 Hg        36.8673952319       29.1736051095       24.3587801846
 Hg        23.5048648608       13.3501387750       36.1384372425
 Hg        26.8130188254       16.5084218483       36.0154950240
 Hg        28.9839420882       19.0720725392       36.1552112122
 Hg        30.6537556190       22.6228109894       36.6356628472
 Hg        23.3530859548       10.0729881428       13.0542487512
 Hg        23.1902783842       19.8021638395       10.0354880358
 Hg        13.2060905974        9.8752669130       23.0941257959
 Hg        29.5023619440       23.3876338955        6.9078066696
 Hg        32.4831587051       29.6874325950       16.3642772815
 Hg        16.4944786142       19.7470470910       10.2677660701
 Cl        15.2051942253       18.7705072654       37.7367330915
 Hg        26.6145194014       13.1854668792       13.1733181044
 Hg        19.9110756923       23.0747755746        9.9955731284
 Hg        13.4524160740       13.3114481361       13.3665316214
 Cl        15.6445199653       24.2176366245        5.0623557775
 Hg        23.2411555071       16.4857377943       19.7730314106
 Hg        26.7884238839       16.6142998489        9.7722251338
 Hg        26.3522204417       16.3496473573       29.7879829543
 Hg        32.8480758945       23.5189366435       17.0487889059
 Cl        37.7491545663       20.5139716916       30.7397402774
 Hg        16.5982725029        9.7862001496       26.5125033427
 Hg        33.1207991537       13.0525053835       19.7979125369
 Hg        36.1445108459       16.5404872118       20.3622105681
 Hg        19.9250618913       19.7858500087       19.8147381394
 Hg        16.6284738758        6.9114118722       16.3171012894
 Hg        13.9368497907        6.8687154915       25.6480428653
 Hg        16.4972344040       16.6395669157       13.2064081413
 Hg        19.2261899428       14.0127415445        6.8602746207
 Hg        10.4397405926       13.3509715191       16.4579421927
 Hg        16.6503824852       16.5022416052       19.9093832783
 Hg        29.5595828751       23.0077532449       13.0326915854
 Cl        37.8877295669       23.6536602909       28.0838691620
 Hg        29.5340024302       29.6530757369       19.7782092527
 Hg        32.9926689555       16.3846085681       16.3156104708
 Hg        29.7643507911       19.7907353487       23.1450285753
 Hg        20.0709074827       13.0564760761       13.1906418178
 Hg        29.9366892134       20.0513329365        9.9729385146
 Hg        16.9323040027       22.6444187185        6.8371932615
 Cl        11.1978839536       10.6404434286       31.4515323464
 Hg        13.2132205404       30.5003445971       10.3233813421
 Cl        38.1590601138       12.8050939796       21.8100772595
 Hg        20.2053254738       36.7247920923       12.7442609184
 Hg        13.3234768390       16.5781715939       16.6153636332
 Hg        22.9237235043       29.7043496292       13.0515753321
 Hg        26.5263757742       32.7046368291       13.2973168742
 Hg        23.2007336077       23.0953414933       19.8317968737
 Cl         6.1997320822       28.5454607004       25.6722596719
 Hg        13.3163131413       26.6854274226       12.9152201218
 Hg        16.4510620679       29.7677686734       13.1924480208
 Hg        19.7978011332       32.6979999241       13.0280051141
 Hg        23.9300125326       36.1356569173       13.8800237258
 Hg         8.2797461841       19.6436788306       13.3100350020
 Hg         9.8704219223       23.6528084747       13.0479097762
 Hg        16.5044105333       26.4265658465       16.4970130661
 Hg        19.9132747495       29.6902808931       16.5973620598
 Hg        23.3340568817       32.8290888507       16.5003885790
 Hg        26.3982058725       35.9464874294       16.1993381460
 Hg        35.9190359155       22.9994406501       19.6629640176
 Cl         5.1333923813       22.3400666829       30.5859614739
 Hg         9.8758686687       19.8058997591       16.7678190637
 Hg        13.1799545149       23.1115235546       16.4608629310
 Hg        19.9184112378       29.6767137861       23.1411421649
 Hg        23.0824174475       32.9630232725       23.0949244312
 Hg        26.3838497178       36.0105419638       22.6366662924
 Hg        36.1244481407       22.5165021098       26.3624743854
 Hg         6.6045105083       16.9041796917       22.9547574989
 Hg        10.0512297964       19.8020720067       23.1023640275
 Hg        13.3455905201       23.0550125181       23.1967480929
 Hg        16.6354470350       26.3598041227       23.0914481748
 Hg        23.4920732098       29.7860822218       26.6948790743
 Hg        26.6502076849       32.9111491496       26.6946641630
 Hg        28.9726958489       36.1424452252       25.6482329095
 Hg        29.8118679820       23.0905454116       26.4158532016
 Hg        10.4645550083       10.0262649473       19.6511806143
 Hg         6.8637207412       13.7245368933       25.4934495658
 Hg         9.9387847240       16.3326913977       26.5112902924
 Hg        13.2241756298       19.6772555596       26.5121292739
 Hg        16.5898250628       23.0515529613       26.5233800458
 Hg        19.9333557685       26.3805943811       26.4085182884
 Hg        26.6308188541       29.9685145723       29.7700269768
 Hg        30.2325246120       31.8628079589       30.1040022511
 Hg        26.6061439526       16.4692795695       16.4852287879
 Hg        19.3663950960        9.7291796769       29.9409370384
 Hg        10.9873278297       12.8780392365       29.6976835819
 Hg        13.1904743045       16.0760312517       29.9440359580
 Hg        16.5959485396       19.6721059193       29.8008502069
 Hg        19.9300999548       23.0639888302       29.7031033878
 Hg        23.2532113620       26.4819541928       29.7983627255
 Hg        29.5202876569       29.2196571168       32.6851170801
 Cl        12.1576138469       22.4478494096       37.6776144497
 Hg        26.5336846648       13.1496153957       19.8131600220
 Hg        32.5600727423       26.6835202038       13.3692526810
 Hg        12.8970554198       12.3236264048       32.7904986913
 Hg        16.6627771399       16.3504242494       33.2236667571
 Hg        19.9590179498       19.7681000905       32.9812181896
 Hg        23.2201282947       23.0654595819       32.9635046503
 Hg        26.4904981992       26.6352753770       33.2116586921
 Hg        32.9502192539       26.9387584863       26.8276022591
 Hg        23.2466553448        6.9712779103       23.1996158267
 Hg        26.2301197631        9.7369722545       23.0896373437
 Hg        17.6393891327       13.8742296232       36.2552735995
 Hg        20.3336990306       16.7642908191       36.1734474775
 Hg        23.3889332306       19.7633666571       36.1305215420
 Hg        26.4326821629       22.7487089390       35.9970544403
 Hg        29.6483932130       26.0639568622       35.4023968223
 Hg         6.7584261698       31.5207273684       20.8761576864
 Cl        38.2752804696       27.2818588643       24.1271766629
 Hg         6.8417896319       29.4454528769       23.3888641431
 Hg         9.9898990105       32.3576309055       23.3539307525
 Hg        30.0970984158       16.5692086471       13.2005547493
 Hg        37.0355404106       20.5129206971       12.7413737345
 Hg        26.5542447672       19.7831340170       13.2105231541
 Hg        26.6520925811       10.2974136369       29.5449580195
 Hg        26.0673008584       20.0824211691        6.8359629374
 Hg        16.6335452915       13.1758412736       23.2000795661
 Hg        35.6700471752       24.2178923961       12.4482504234
 Hg        26.2888559111       26.6779298882        6.8580253835
 Hg        32.8170549407       16.3326585229       29.6794630108
 Hg        36.7748939441       24.9226249467       23.1646793595
 Hg        32.5215204940       33.0026690970       19.6519347497
 Cl        32.0568044256       10.9781065633       11.1713942563
 Hg        22.8505872719       16.5639393942        7.0039164290
 Hg        26.1028231936        6.4579265247       19.9230716232
 Hg        30.0506808570        9.7546552330       19.3537863270
 Hg        36.1592157324       13.2211494520       23.5392242575
 Hg        29.8533758350       19.9089986114       29.8006150617
 Hg        29.6959679159       13.3103738506       29.6189866187
 Hg        29.8042223950       13.3277427340       23.1983829032
 Hg        36.0182826731       16.5373066952       26.7714918803
 Hg        26.5263271993       23.2361618168       10.1801382425
 Hg        29.8104994449       23.0914028072       19.8983978917
 Hg        32.3977160477       23.6636928997       10.0988110681
 Cl        18.5401145423       21.4547962981       37.5988639923
 Hg        17.2067299638        6.9266507424       29.2338012719
 Hg        33.2832322416       26.3442022371       19.8201383467
 Hg        36.6504646979       19.4070523377       17.4175306264
 Hg        11.1266881096       30.0720535256       13.0835428335
 Hg        13.4763378964       32.5758668674       13.6202702196
 Hg        16.6357639330       35.1008288427       13.2020338490
 Hg        33.1124340509       19.9079491740       19.9170143868
 Hg        23.2328716455       19.7554465977       16.5019585348
 Hg         7.0051958110       25.7148736922       13.7651186785
 Hg        13.1805428105       29.7920148350       16.6017049055
 Hg        16.1834865429       32.8996835050       16.3161718153
 Hg        20.4790080635       35.9925064263       16.5901520055
 Hg        29.6561314974       10.3094844297       26.5204746862
 Hg         6.6003609080       23.0270558129       16.9267667771
 Hg         9.9480246989       26.5118873782       16.3418139330
 Hg        16.6244629434       29.7960633670       19.8056581112
 Hg        19.9022398438       32.9660603673       19.8091332209
 Hg        23.3934834885       36.1273843858       19.6336744686
 Hg         7.0857192261       19.7696939374       19.7636175108
 Hg        10.0360555600       23.0791567111       19.9075581172
 Hg        13.3051863806       26.3714356160       19.8008712798
 Hg        19.4986928692       32.7069904380       25.9577349360
 Hg        23.5706183665       36.5415078356       25.5844891432
 Hg        33.1320193686       23.1062817063       23.2056045171
 Hg         7.0818528227       20.1427331125       26.2272570976
 Hg        10.1462589538       23.1702098413       26.4605867430
 Hg        13.3103339757       26.3960001530       26.2846743611
 Hg        16.6479025844       29.6258248842       26.4997612503
 Hg        22.4631815570       36.9340004720       30.2587031047
 Hg        26.1171493867       36.1516915700       29.3735778863
 Hg        23.2445907676       16.4758344607       13.2019505161
 Hg        19.8992725304       23.1767378625       16.5067818420
 Hg        23.2289382503       26.3538581417       10.0187271957
 Hg         7.1024166286       16.9531082409       28.9785273579
 Hg        10.1988072860       19.6141291790       29.9620609833
 Hg        13.2183701826       22.7846277586       29.8569066425
 Hg        16.7857606944       26.3926632058       29.8280151887
 Hg        20.0385858209       29.4339500812       29.9647915784
 Cl        24.3599075714       14.6018621818        5.8005559175
 Hg        22.7946433582       12.3495602197        6.3901040210
 Hg        26.2290930726       13.4429023098        7.5812368063
 Cl        21.7733553886        5.3107334290       24.7073149477
 Hg        13.1365647237       19.5125764797       32.8150994266
 Hg        16.6363879230       23.0990616499       32.9670540957
 Hg        19.7951747566       26.3889993194       32.8104022943
 Hg        23.0743187513       29.7956840962       32.9783140493
 Hg        29.6854958628       19.1036432000        6.0144109234
 Hg        32.1985629610       21.3259898407        7.1595383755
 Hg        23.2377342063       13.3193188961       29.8229720120
 Hg        14.3284221968       17.0310992466       36.1516568539
 Hg        16.9117383840       20.1748871042       36.1186640209
 Hg        19.9058659957       23.0652757913       36.1154278060
 Hg        22.9316687565       25.9441476592       36.1497072546
 Hg        23.9874647608       29.5363696005       36.9584037871
 Hg        13.4511119661        6.7754394219       19.5827170937
 Hg        19.9060421738       19.6030779026        6.8767588036
 Cl        14.4227828831        6.0510923439       17.3541082791
 Hg        19.7895643891       26.4321332476       13.1657095893
 Hg        23.2048841715       26.4351635625       16.4795936870
 Hg        19.1238536314        6.8632118478       14.1112570601
 Hg        26.5058274756       26.3660174585       19.9148682356
 Hg        16.4879884846       10.1960371426       19.7652820749
 Cl        11.4278244924       32.2510049285       11.3424856954
 Hg        29.9520402018       26.3827841415       23.2361197718
 Hg        10.4399924041       16.3532165570       13.4476363893
 Hg        19.7771184955        6.7558256377       19.7462614964
 Hg        29.4346916802       13.6209165412       10.2948200002
 Cl        24.8015237771        5.3078672259       21.6998974335
 Hg        26.4265674876       13.1743728255       26.3678857044
 Hg        26.5262573051       23.0850336810       16.5960431579
 Cl        21.4254367160       37.5207930828       24.7778407517
 Hg        29.7858780522       16.3585601839       26.2579721407
 Hg        20.0424329257        6.4560311206       26.1069923018
 Hg        19.7825824544        9.9787975785       16.5228563281
 Hg        19.9046504576       16.4791618870       23.1889490918
 Cl        21.5720461266       24.3946930136        5.3693683854
 Hg        20.3235343202       26.1122610252        6.7713689004
 Hg        36.2624870167       19.0147992593       29.0963448748
 Hg        26.5300674164       29.6857829595       16.7099890474
 Hg        23.4701220853       10.3376353492       32.8897173043
 Hg        22.5077678455        6.3693501834       12.0439739262
 Cl        18.3125577986        5.3752211951       21.3486274396
 Hg        29.9968973358       10.8234835274       12.9046489840
 Hg        32.2475789668       13.0606858194       12.9145425299
 Hg        36.2446106552       16.8573673939       13.6180927074
 Hg        36.2815516398       19.5474010073       23.3656812394
 Cl        19.2593193729       27.7716713221        4.9846677978
 Hg        29.7604932364       16.3333521956       32.7981183338
 Cl         5.5176658730       18.7974147068       28.1052037813
 Hg        13.8430016600       36.7142324450       18.7061219897
 Hg        29.7757625655       26.3586842735       16.5100226626
 Hg        29.9268242388       19.6029654469       16.3230937966
 Hg        23.3143971629       13.0191473663       10.3062682498
 Hg        33.4091310551       29.9489997777       23.0882866304
 Hg        23.2297168449        9.7431405074       26.1937925895
 Hg         6.8605687359       28.8829550251       17.3348265818
 Hg        13.0548484435       33.2334210338       19.9312647343
 Hg        18.0663666017       36.6141787656       19.8309007459
 Hg        23.2214748514       19.8012237361       23.1135355795
 Hg        23.2365371654       13.1865318203       16.5072000618
 Hg        29.7305196667        8.1252340747       23.2406697823
 Hg        32.9636938704       10.3018379609       23.2683836015
 Hg        16.4902805650       13.2605451724       10.2065432042
 Hg         6.9373674674       26.0976601596       20.1656537325
 Hg         9.8877655503       29.7070198885       19.7885146493
 Hg        16.6537441495       33.1326299943       23.2042666940
 Hg        19.9845705879       35.7962387547       23.3405307925
 Cl        24.7760513181       21.4909421814       37.4855879011
 Hg        13.1652917628       23.0537167978        9.8970503867
 Hg         6.8862322982       23.1960157209       23.3354227231
 Hg        10.3222846655       26.4941164699       23.2309456601
 Hg        13.3311288981       29.3983382801       23.2198915642
 Hg        18.7849431890       35.5239254330       30.5603012492
 Hg        25.8943770471        6.7792986184       14.1762986488
 Cl        15.4294948767        5.2530623038       24.4310597773
 Hg        36.1788701119       13.9387767738       17.3394358225
 Hg        16.5011307073       26.2507837675        9.7390316790
 Hg         6.9063510331       23.7795535038       28.8444993388
 Hg        10.2750458081       26.4091715796       29.7007309577
 Hg        13.3578923796       29.3802109310       29.6970184071
 Hg        16.3336980177       32.4049631108       29.6343545423
 Cl         5.5340982401       21.4465852549       24.6527491864
 Hg        32.8513888146       23.0836197747       29.9218502107
 Hg        23.3824613643        8.1265399647       29.6745196023
 Hg         6.3416981413       20.3143303618       30.6599481757
 Cl        28.6383407465       36.8051303202       17.2495692799
 Hg        13.4542682918       26.4327063322       32.8276865169
 Cl        20.4519419342        5.2423843223       12.0361491104
 Hg        19.4112582511       32.2651741018       32.8922194734
 Hg        16.8004426291        6.8439882610       22.8407163724
 Hg        11.3021265852       21.8339769186        6.8503017673
 Hg        12.1898165563       20.3856896638       36.5549778778
 Hg        14.2543442109       23.7900227768       36.1199722759
 Hg        16.4555186448       26.2868640927       36.1270157244
 Hg        19.7447296102       29.4160940076       36.0870750632
 Hg        13.9901360943       25.1769422224        6.5966144174
 Hg        19.9145983239       19.7961089096       13.2944418443
 Hg         7.0538188401       26.3462670729       26.7152304613
 Hg        13.4665470591       13.1534903592       19.7868851554
 Hg        29.3365718265        6.8369580829       17.3225357389
 Hg        36.2584325053       11.3004478982       20.8714003760
 Hg        19.6801587361       29.8144013555       10.0228132105
 Cl        25.7729896020       14.2831365173       36.8061952604
 Hg        13.3165382050       32.3580302071       26.6368766776
 Hg        19.9315619966        9.9362013981       23.0842471823
 Hg        13.5242907776       19.4676826824        6.8539292676
 Hg        26.5178129965       23.1105298562       23.2053434986
 Hg        34.7092009412       29.9483105135       19.3763873927
 Hg        23.1878564598       23.0875044366       13.3006746017
 Hg        29.5007797540       29.6454436427       13.2935495183
 Hg        16.4362224289       10.1713882753       13.3225227765
 Hg        19.7662443774       16.4875566317       10.0647183193
 Hg        10.4799996146       19.5010120594       10.1103389309
 Hg        16.5099037147       23.0976558372       13.2716895425
 Hg        16.6377225301       19.8140236362       16.5655282367
 Hg        19.9335559792       13.2179201763       19.7946426519
 Hg        19.9305314150       13.0529234254       26.5131255847
 Hg        23.1886114646       16.4918036804       26.4136908946
 Hg        26.5267040683       19.7640948909       26.5044529272
 Hg        29.8231300170       16.4766503173       19.7655540911
 Hg        16.6966925507       16.2025083665        6.9964710366
 Hg        16.1823041648       29.5461164980        7.5849491955
 Hg        26.5284018721       26.2182335897       13.1816273979
 Hg        23.1910388691        9.9293420501       19.8142107980
 Hg        32.7013518010       16.3465195148       23.1746241695
 Hg        26.5203264152       29.6287560130       10.1174829809
 Cl        24.1782784459        5.2051605056       15.0665450607
 Hg        19.9277832738       29.9439476148        6.0611031936
 Hg        11.3614284210        6.7692193428       22.0895753947
 Hg        21.8104233203       32.0924867147       35.8114862841
 Hg        21.0847231321       11.1845450509       36.1573854737
 Cl        37.9207951238       24.5985874277       21.1224550943
 Te        31.5976302594       15.0761666460       11.2734744185
 Cl        15.8863559494       24.5210827011       38.0159432888
 Cl        32.5347054582       31.6500008543       31.5665886986
 Te        35.2886960781       31.1904606985       24.6478522351
 Te        31.5896315539       21.5639600056       11.6448376928
 Te        11.8120865234       35.1515494842       18.4164468819
 Te        18.1955336400       24.7821606710       14.8737915121
 Te        28.0257870611       11.5836705627       24.6581091820
 Te        21.5556651029       21.4462460489       14.9316431744
 Te         8.7384523977       17.6870104889       11.5582968293
 Te        14.9327439440       18.0942153681       24.8193157302
 Te        31.5179664463       14.7960753968       18.1539467812
 Te        24.8147331046       11.5863748495       21.4586356799
 Te        31.5569157959       24.7618221358       21.4923656043
 Te        18.2640771846       21.4261853193       24.8482646493
 Te        18.6988253949        7.5561070789       31.3464924240
 Te        18.3519536271        8.2529061892       24.7247339619
 Te        15.0352284176       21.2838135338        8.3603176937
 Te        18.2978633104       18.1629893310       21.5293889367
 Te        21.5595540455       11.5579843034       18.1380948605
 Te        24.8194787884       31.1080881526       14.8500905840
 Te        11.2583243434       33.9387674323       25.4647714378
 Te        31.3283859639       11.5649431878       21.4027420270
 Te        21.6029843456       24.7052329486       24.8284125588
 Te        18.3411539919       31.2275984500       28.1080394596
 Te        13.7064527615       26.4465374218       35.5745452396
 Te        24.8466338328       27.9950712846       18.2316664075
 Te        11.6672500957        7.8985341200       24.5147884096
 Te        31.2826535358       18.0719810914       28.0706897320
 Te        31.4634884052       21.4290311400       24.7957920220
 Te        15.0565848348       27.8954774346       28.0563883002
 Te         8.7344596242       11.4870884715       17.8128227304
 Cl         5.2372671726       24.4111957310       15.3329765791
 Te        28.0162838638       21.5476410375        8.3210626788
 Te        24.8013308609        8.2326385289       18.1833809369
 Te        18.3011289615       21.4759060108       18.1771265849
 Te        18.2527750090       31.4089543616       21.5365734324
 Te        18.2963430422       14.7940316185       24.8468037841
 Te        11.6489007914       21.4818774929       11.6906684284
 Te        31.4018387878       18.1633043393       21.4752809461
 Te        15.0130039975       14.9517460587       15.0016671292
 Te        28.2823019729       14.8773915206       14.7741189690
 Te        18.1337602112        8.3684947495       18.1782404538
 Te        28.3250352022       31.3893222512       17.9882947052
 Te        28.2120673314       28.1370038236       28.1457405350
 Te        11.7364654020       18.2543825696       15.0065780517
 Te        31.6374952927       18.7842159754        7.7828686060
 Te        14.7065057209       11.5674317733       11.5965040427
 Te        18.2108590919       28.0581609676       18.1881656612
 Te        21.5887877207       11.5721734344       24.7282852338
 Te        24.9271535502       14.8284200876       18.1331521631
 Te        21.5908252133       31.3222326410       18.2137338934
 Te        24.8869772060       24.6888567447       34.6593270931
 Te        21.5361960949        8.2548172663       21.4301029665
 Te        28.1895201820       24.8004703370       24.8291405465
 Te        15.0056745084       28.0210327208       21.4342353006
 Te        14.9994730458       11.4317183160       24.7531554604
 Te        21.5067906774       11.5170097999       31.2926521307
 Te        24.9956256583       34.4677651553       18.1364921853
 Te        28.3127866490       18.2335758006       11.5164082543
 Te        28.1118334781       28.1750561147       34.9386998591
 Te        11.6100773213       17.9885497794       28.1608601258
 Te         7.9126712916       18.3114691357       31.2594016887
 Te        24.8445790667       24.7311188345       21.5397719064
 Cl         5.4944176225       24.6270030676       21.6965160237
 Te        23.6912188924       10.5360974706       35.6039307268
 Te        28.1400379425       31.4335697344       31.7099273761
 Te        14.8706655670       28.1301927147       14.8900281162
 Te         8.3791297799       18.1654558704       24.7409202322
 Te        35.0298349641       14.8678478138       15.0044026157
 Te        25.0547903125       14.6032663954       31.4976464822
 Te        24.8954573041       24.7489283303        8.3707555863
 Te        15.2816827366       14.7620081338       35.1015182513
 Te        28.1456988801       21.4615518077       21.5069443290
 Te        24.7536883977       11.5932820227       27.9808125648
 Te        11.9606059650       18.2037132935       35.1617003845
 Te        28.2452342841       21.2312243713       34.5720671316
 Te        18.0869984922       28.0092954021       11.4942199938
 Te        24.8608503263       18.1014219667       28.0862880101
 Te        18.2508811977       21.4532719702       11.6718669510
 Te         7.8714506069       31.2079003700       18.4480478729
 Te        14.8520567102       34.7414496685       21.7220788549
 Te        21.6067241127       14.8181747786       14.8488703551
 Te        31.3784298098       24.6784620745       14.8972791862
 Te         8.4176703090       24.6921688041       18.2369730531
 Te        21.5521862458       21.3825247839        8.3546313945
 Te        19.1539105723       32.1555284259       35.6899853827
 Te        14.9707182479       21.5501062560       34.6974009570
 Te        31.5285094208        8.6090046071       25.1481875966
 Te        18.2338502689       31.4104510206       14.9613083157
 Te        24.8086191934       18.1409790180        8.3272022265
 Te         8.3621152071       21.4793482657       21.5496900014
 Cl        12.8325879141        4.7928073872       21.2384428391
 Te        11.6835478291       11.6764109349       21.5399718980
 Te        11.5042480721       21.4317445268       31.6320277627
 Te         7.6993191902       24.2893343236       11.6243391192
 Te        34.8873288192       24.6348169839       24.9552180713
 Te        31.6929385574       31.4941275161       27.8843994361
 Te        11.6881198940       14.8122599942       24.8175623071
 Te        31.6372952783       24.3425078972       34.8937117199