     691
 i =      162, E =    -17819.8949990980
 Hg        19.4538387128       25.6592250271       19.4099234493
 Hg        22.5407278621       28.7703604408       19.4576911095
 Hg        25.7699423576       31.6672515994       19.3537877579
 Hg        28.6572845965       34.9175920557       19.3377368084
 Cl        26.8471587051        5.6359086602       17.8723523923
 Hg        35.2782399115       22.1850488465       29.7388844868
 Hg         8.5574428427       13.4200375781       19.4373607366
 Hg        10.1447439157       16.7024263913       19.4425735068
 Hg        13.3970222294       19.5704151028       19.4742444526
 Hg        16.3727529449       22.6003468233       19.4298842231
 Hg        22.5495020300       25.6764682574       22.5738587534
 Hg        25.6124765410       28.7928119478       22.5895934075
 Hg        28.7798903460       31.8428524507       22.5736617289
 Hg        30.7010430199       34.7020421330       21.8099143834
 Hg        23.0712640651       28.1517016932        7.1743213910
 Hg        16.2873493091       13.2791292179       16.5288901662
 Cl        36.3182266733       18.0207501415       14.9536455064
 Hg        10.1709449358       13.1133093984       23.0706376254
 Hg        13.2864406151       16.3707700823       22.4969739695
 Hg        16.3762809439       19.4655228187       22.6320861618
 Hg        19.4494580214       22.5431411451       22.5685312013
 Hg        25.6648516280       25.7125444426       25.6483018480
 Hg        28.7273811458       28.8622367692       25.7271097201
 Cl        18.0032801934       36.5147525101       21.3339481943
 Hg        19.4480574023       16.3584147895       16.3075943051
 Hg        13.4295006478       19.4386249925       13.2360289469
 Cl        21.3014637851       17.9555103086       36.2970169386
 Hg        13.3824282647       13.1675172690       25.7398733318
 Hg        16.3753716543       16.3447985351       25.6540833000
 Hg        19.4415325102       19.4662234064       25.6949119178
 Hg        22.5792693813       22.5594062602       25.6696200764
 Hg        28.8071040015       25.6858539198       28.8098812237
 Hg        30.9541914188       28.8348784219       28.8279510722
 Hg        13.1333030187       33.3286079768       22.9025544574
 Hg        34.2929989442       25.4306093282       28.2980447893
 Hg        22.5021088184       13.3898415550       22.5228391366
 Hg        13.3406844367       10.4535130558       28.5464454390
 Hg        16.1293146307       13.2423766112       28.9261762655
 Hg        19.4660290113       16.3393480729       28.7364250268
 Hg        22.5605534782       19.4554948351       28.7327716398
 Hg        25.6673416786       22.5779296979       28.7674675382
 Cl        20.2725655670       12.2813046146        5.5642531046
 Hg        28.8447003152       13.3012533846       16.2795802904
 Hg        25.6195024084       16.4192487309       22.5282761226
 Hg        31.7647704094       19.3627826274       25.6361106185
 Hg        25.6287133108       19.4518993261       19.4384947628
 Hg        22.3811406830        7.3778131625       16.4798630947
 Hg        25.7464329451       10.2113164060       16.3727477140
 Cl        36.3181295061       15.2302000233       17.9790388092
 Hg        19.4604407127       13.1548347534       31.8057180001
 Hg        22.6677248570       16.2313680156       31.6469803165
 Hg        25.6928271120       19.3641320692       31.7504311053
 Hg        28.8930030193       22.5004503238       31.5575584967
 Hg        22.5723162829       22.6570176779        7.2601590494
 Hg        34.5618487328       28.5234639623       25.0478434205
 Hg        22.7351112186       13.3814603455       34.8780384594
 Hg        25.9155201515       16.4452101904       34.7074263754
 Hg        28.1513759899       18.8706253201       34.7684792119
 Hg        29.6473712271       22.3343064688       35.2626918533
 Hg        22.5435574116       10.3928164417       13.1531746226
 Hg        22.5422539998       19.4758799475       10.2462361769
 Hg        13.2482271153       10.2424945526       22.5513146996
 Hg        28.6146715569       22.7002308979        7.3133255709
 Hg        31.4187808783       28.6846866180       16.3198386062
 Hg        16.2345377542       19.4037689489       10.3737014676
 Cl        14.7226093341       18.2453440312       36.1048164690
 Hg        25.6850044494       13.2613018369       13.2003475040
 Hg        19.4754753085       22.5266262041       10.2121807696
 Hg        13.4157123832       13.4008581644       13.4085672313
 Cl        15.3728900280       23.9629076636        5.5360071862
 Hg        22.5475428070       16.3835751949       19.4129337801
 Hg        25.9194485953       16.2921482436       10.0749156294
 Hg        25.5014397009       16.2929505139       28.7723764649
 Hg        31.9016852726       22.5526940537       16.6735118083
 Cl        36.5365144883       20.2037251236       29.7125998905
 Hg        16.4187845656       10.1203083663       25.6749698188
 Hg        31.8045021639       13.2331164866       19.4255562215
 Hg        34.7382426683       16.4993421912       19.6539823891
 Hg        19.4697004767       19.4683012359       19.4564669187
 Hg        16.3720482592        7.3127605232       16.1527405668
 Hg        13.7041306215        7.3336684553       24.9805438272
 Hg        16.2837619165       16.5389115206       13.2404180887
 Hg        18.8684140466       13.9392447278        7.2560232302
 Hg        10.5568650091       13.4440228508       16.2986588307
 Hg        16.4201364584       16.4113946304       19.4837364880
 Hg        28.5446250056       22.6588849163       13.2861008486
 Cl        36.0961768290       23.7319292464       27.3568552761
 Hg        28.5436322049       28.8060525413       19.4275797279
 Hg        31.8999775478       16.4169496008       16.3222556960
 Hg        28.7279185202       19.4585067178       22.5472597521
 Hg        19.5456482340       13.2012133954       13.2323880069
 Hg        28.7705303228       19.5891444617       10.2450073074
 Hg        16.5564921448       22.2731873572        7.2265296075
 Cl        11.3767469132       10.5155562076       30.3610531499
 Hg        12.9938808905       29.4874059491       10.5155986391
 Cl        36.7360088926       12.6770391744       20.9450270086
 Hg        19.6659551703       35.2847053497       12.4360428472
 Hg        13.2968413584       16.4770397429       16.4427304400
 Hg        22.3883733272       28.8052668309       13.1407836599
 Hg        25.7639525231       31.6272128579       13.3020291752
 Hg        22.5200813279       22.5795749496       19.4536377788
 Cl         6.4958415279       27.8146192621       25.0312300904
 Hg        13.2205225551       25.9122095641       13.0235777755
 Hg        16.1636686626       28.8213878089       13.2082324383
 Hg        19.4204015810       31.5219563204       13.0668465831
 Hg        23.2309744114       34.8349877825       13.7509886356
 Hg         8.5656317568       19.3828739061       13.3715147182
 Hg        10.0860846586       22.9720584495       13.0288191393
 Hg        16.3213235462       25.7014981484       16.3551307552
 Hg        19.4282499253       28.8106450087       16.3643190088
 Hg        22.6568979397       31.7679872203       16.2970865515
 Hg        25.5751116960       34.7165521661       16.1082123650
 Hg        34.6352703688       22.6397732425       19.4120660548
 Cl         5.5553252518       21.7550615666       29.8203211113
 Hg        10.1353418064       19.5434258233       16.6414767602
 Hg        13.1989926938       22.6530796023       16.2471547769
 Hg        19.4466835805       28.7033314894       22.4877112497
 Hg        22.5596484462       31.8406877467       22.5286464171
 Hg        25.5185204291       34.7614891426       22.3782492181
 Hg        34.6582591227       22.3856083960       25.5091830299
 Hg         6.9597446265       16.6388326839       22.4514928463
 Hg        10.2269966215       19.4985559972       22.5766715389
 Hg        13.2857540853       22.5465168502       22.5848710975
 Hg        16.3835880283       25.6083661167       22.5334635192
 Hg        22.5217671593       28.7962066564       25.6997474733
 Hg        25.6114555838       31.9160676001       25.6896134540
 Hg        28.2629700505       34.6450397536       25.1115626842
 Hg        28.7390758663       22.5672107383       25.6306752253
 Hg        10.5491045757       10.3208427260       19.3196786132
 Hg         7.3664329985       13.6025078574       24.9206721118
 Hg        10.2109339782       16.2649448710       25.6524684095
 Hg        13.2607215823       19.3918438246       25.7291893834
 Hg        16.3362831024       22.5435563733       25.7424336181
 Hg        19.4816151940       25.6074981880       25.6361609557
 Hg        25.7188118300       28.8190178776       28.7965250439
 Hg        28.5861901253       31.1849484391       28.7183928626
 Hg        25.6879847743       16.3626989338       16.3593675806
 Hg        19.0381215916       10.0905386741       28.9493962312
 Hg        11.1842959775       13.0100781844       28.6841482149
 Hg        13.1181979048       16.0776721077       28.9798757438
 Hg        16.3301103564       19.3755180950       28.8207947284
 Hg        19.4577216372       22.5301950636       28.7467422879
 Hg        22.5831435433       25.6276004700       28.7602668444
 Hg        28.6767387715       28.7899971479       31.4849311158
 Cl        12.3860798712       21.7111009753       36.5457995798
 Hg        25.6892772008       13.2949442703       19.4728567325
 Hg        31.3816814094       25.8876049295       13.5772512140
 Hg        13.0365458060       12.2934639392       31.7415737605
 Hg        16.4842589771       16.2665300118       31.9104216616
 Hg        19.5494555800       19.4681090484       31.8037223972
 Hg        22.5747775189       22.5423577523       31.7848449257
 Hg        25.7736400502       25.9043769610       31.9351280793
 Hg        31.8257336597       25.7598134066       25.6245082844
 Hg        22.6158747838        7.3790166219       22.5939861281
 Hg        25.3517337737       10.1560240614       22.5446110673
 Hg        17.2842603674       13.7698004917       34.8793816017
 Hg        19.8074025909       16.5421276571       34.8266012371
 Hg        22.7154062839       19.4637818495       34.7706095198
 Hg        25.6682331393       22.3765186557       34.7165465038
 Hg        28.9039228745       25.6318035818       33.7359712124
 Hg         7.2635565654       30.6628766447       20.2945312572
 Cl        36.3923014874       26.8714516666       24.1175539715
 Hg         7.0644415572       28.5823766322       22.7163678449
 Hg        10.1646784645       31.3037759733       22.7294747604
 Hg        28.8267070139       16.3594437267       13.2261026134
 Hg        31.9529039300       19.1773929369       13.0687195106
 Hg        25.6257108014       19.4599083537       13.2596084860
 Hg        25.7841905759       10.5595718509       28.5718346831
 Hg        25.2419550126       19.6182820730        7.2438306902
 Hg        16.4195777930       13.2846852617       22.5690955190
 Hg        33.4894588667       22.7926902876       13.4456734080
 Hg        25.5289654879       25.8968493887        7.2715010576
 Hg        31.6489985526       16.2263575761       28.6825384252
 Hg        35.0662299404       25.4920955820       22.4783775045
 Hg        31.4545038961       31.7967498053       19.3342905278
 Cl        30.5785327227       11.4969798252       10.9297682518
 Hg        22.3814927967       16.3723100110        7.3168817143
 Hg        25.4735158740        6.9668434456       19.5246921767
 Hg        29.0046810461       10.1481389898       19.0355615419
 Hg        34.8804046303       13.3115856695       22.6356732682
 Hg        28.8393643150       19.5590927941       28.7833298411
 Hg        28.6582380758       13.4200995123       28.6121558880
 Hg        28.7778823373       13.4471238285       22.5844957755
 Hg        34.7113169200       16.3789001073       25.8329463630
 Hg        25.7482396314       22.6776543892       10.3741831412
 Hg        28.6105786669       22.5481192866       19.5204097753
 Hg        31.4510184110       23.0290189612       10.4928841944
 Cl        18.1328125176       20.8914422172       36.2488114492
 Hg        16.7451404465        7.6222313716       28.5422739313
 Hg        31.8668632686       25.3896330788       19.4585680769
 Hg        35.1655929514       19.4748232078       16.5504163263
 Hg        11.0371030238       28.9551413586       13.3713201748
 Hg        13.2643357745       31.4913389523       13.6023083591
 Hg        16.3338245105       33.6814670261       13.1117908876
 Hg        31.8195115584       19.4722211377       19.5190043307
 Hg        22.5396055157       19.4549135780       16.3468057862
 Hg         7.6873682029       25.3567724028       13.4775921616
 Hg        13.1806533746       28.7942272926       16.4057000038
 Hg        16.0039540022       31.8315253171       16.1924303648
 Hg        19.8686528280       34.7061880541       16.2536369086
 Hg        28.5985797899       10.5762193021       25.7310291976
 Hg         6.8847456311       22.5966352472       16.5193086745
 Hg        10.1540520580       25.6770719380       16.3044039458
 Hg        16.3651456084       28.7984865463       19.4620081746
 Hg        19.4873993217       31.8588856942       19.4376471402
 Hg        22.6540798138       34.8468085666       19.3489702617
 Hg         7.3890440975       19.4547328359       19.3837201906
 Hg        10.2178124588       22.5987723374       19.5056907969
 Hg        13.2800363083       25.6305536845       19.4748036701
 Hg        19.4419109815       31.8878715957       25.3551656508
 Hg        22.5504401606       35.1478518222       25.5847078673
 Hg        31.7996130222       22.5404706011       22.5494521675
 Hg         7.3971691147       19.6329794918       25.5841310930
 Hg        10.2924840881       22.6157613194       25.6999796792
 Hg        13.2619405947       25.6781124386       25.5229430997
 Hg        16.4311377510       28.6876519678       25.5995797684
 Hg        22.9260422000       31.9460343920       28.9710340878
 Hg        25.2917454505       34.3489041131       28.5911862537
 Hg        22.5628882897       16.3723987371       13.2550662171
 Hg        19.4563111759       22.6232643945       16.3404611305
 Hg        22.5652591059       25.6678148585       10.2281242973
 Hg         7.8154671276       16.5234076027       28.3519289522
 Hg        10.4301017984       19.3988186233       28.9294060154
 Hg        13.2083038653       22.3894151176       28.8596197610
 Hg        16.5180163380       25.6908796515       28.8395103128
 Hg        19.4260423147       28.5485083685       28.7880380074
 Cl        23.7750494909       14.5042540391        6.1021864432
 Hg        22.2992818743       12.3413347799        6.7965091818
 Hg        25.6020422554       13.1952193220        8.2278935370
 Cl        21.1954019108        5.7112992157       24.0570920213
 Hg        13.1582890302       19.3652481836       31.6642689187
 Hg        16.3833401052       22.5817191305       31.7798642861
 Hg        19.3941860598       25.7475471656       31.6514341830
 Hg        22.5100849462       28.7690763730       31.7842654830
 Hg        28.7719486995       18.5552301276        6.5640676593
 Hg        31.1823497799       20.6922584892        7.8235594252
 Hg        22.6211549311       13.4176562474       28.7989439776
 Hg        13.6902021932       16.3900013101       34.1969058330
 Hg        16.5323557960       19.5993364110       34.7355305995
 Hg        19.3590446917       22.5493935992       34.7700805221
 Hg        22.4228566142       25.2364671712       34.7823505470
 Hg        23.5448814736       28.7516673272       35.4612287532
 Hg        13.3087300017        7.1467582193       19.3538777215
 Hg        19.4649046888       19.3352333149        7.2466670907
 Cl        14.1125263158        6.5417663156       17.0531666418
 Hg        19.3899229002       25.7158516944       13.2209560123
 Hg        22.5382970459       25.7338655706       16.2921555700
 Hg        18.8438280443        7.2453519026       14.0051360002
 Hg        25.5613720641       25.6467835527       19.4855667099
 Hg        16.2256450954       10.3818324979       19.3528334854
 Cl        11.3220337306       31.3043096698       11.5985876861
 Hg        28.7179368088       25.7307340571       22.5329171921
 Hg        10.5704172004       16.2614677577       13.4524780300
 Hg        19.3977852626        7.1812732814       19.3279955466
 Hg        28.7582565975       13.3810091095       10.5236893414
 Cl        24.1247256562        5.7089773955       21.1827448688
 Hg        25.5870862049       13.2952685777       25.5863501036
 Hg        25.5816711281       22.5446455512       16.3759860516
 Cl        20.8895372017       36.3358089766       24.1346394135
 Hg        28.7725759240       16.2912165511       25.4840669992
 Hg        19.5155679878        6.8554557417       25.5007428518
 Hg        19.3481089905       10.2654686968       16.3642681222
 Hg        19.4341324242       16.3807515977       22.5955149288
 Cl        20.9327903835       23.8131239188        5.7199270536
 Hg        19.6753394038       25.4871455486        7.1687275920
 Hg        34.8003117980       18.8485250915       27.9775858537
 Hg        25.6969448913       28.7976725667       16.5003365885
 Hg        22.7992765798       10.5444850321       31.7320347824
 Hg        22.1913742146        6.7568126142       12.2645368629
 Cl        17.9232348424        5.7589937795       20.8564879761
 Hg        28.8024685933       11.0732070345       13.1807025696
 Hg        31.1407270022       13.4402103818       13.2708284305
 Hg        34.3226683113       16.7648122019       13.4410491540
 Hg        34.8536382070       19.4026373909       22.6689831690
 Cl        18.6058528301       27.1558716136        5.4758419882
 Hg        28.7247749546       16.2454736057       31.6059515455
 Cl         5.9823463354       18.2928486357       27.4255834039
 Hg        13.6105920574       35.3945829024       18.3032529860
 Hg        28.6800126421       25.6226180175       16.4677836106
 Hg        28.7855021688       19.5163244976       16.3421370785
 Hg        22.5154691899       13.1540642220       10.4829851561
 Hg        31.8784768710       29.0299478458       22.9698963716
 Hg        22.5497409518       10.1031765002       25.3630907338
 Hg         7.3807867877       28.2319502761       16.9261137432
 Hg        13.1547174161       32.0401167071       19.3959170165
 Hg        17.6654816865       35.3038440134       19.3318776735
 Hg        22.5531773941       19.4870396395       22.5672827939
 Hg        22.5563266116       13.2839133280       16.3661583948
 Hg        28.6504344351        8.5626947442       22.6000684305
 Hg        31.7458883230       10.5230004889       22.6954747193
 Hg        16.2330685246       13.3258970845       10.4026656392
 Hg         7.2956513023       25.5114107681       19.6758532471
 Hg        10.1870054256       28.8052367608       19.4392610243
 Hg        16.4937655086       31.9716420039       22.5619849925
 Hg        19.5014523973       34.6045410829       22.7585955224
 Cl        23.9852124436       21.1984432705       36.1861429900
 Hg        13.1654734644       22.6191874030       10.2252525447
 Hg         7.2273041141       22.6040849208       22.6932928621
 Hg        10.3690469021       25.7840395005       22.6948073875
 Hg        13.2841274606       28.5504138686       22.6469544480
 Hg        19.2888620689       33.5014244918       28.5912725852
 Hg        25.4349575453        7.7833109734       13.6709444249
 Cl        15.2410025758        5.6715435250       24.0096986523
 Hg        34.6231448038       13.7697314567       16.9062954194
 Hg        16.3505342004       25.6163685796       10.0791381841
 Hg         7.2639038155       23.1147424036       28.0846045564
 Hg        10.3946001158       25.7168191299       28.7479683264
 Hg        13.3784864096       28.4800596683       28.7070165653
 Hg        16.1827372550       31.3583965874       28.5057573789
 Cl         5.8513222187       20.8951884932       24.0003427503
 Hg        31.6411499109       22.5541084667       28.8489189739
 Hg        22.6741183413        8.5520013001       28.6478258427
 Hg         6.7851876611       19.7498928759       29.7926116941
 Cl        27.8196905186       35.5359378143       17.0672778635
 Hg        13.3441708961       25.7243108713       31.6967848168
 Cl        20.2074867822        5.5009300765       12.2842151703
 Hg        19.0658263660       31.4919810513       31.5494970990
 Hg        16.5168699973        7.2876250067       22.3475215140
 Hg        11.1910417643       21.6626519596        7.4238854776
 Hg        12.4496488282       19.6796011872       35.3410719650
 Hg        14.0728397423       23.1131918662       34.8431121663
 Hg        16.2126317935       25.6094243223       34.7460175824
 Hg        19.4131075843       28.6665380117       34.7039504643
 Hg        13.7402661960       24.7782736734        7.1555824293
 Hg        19.4481540397       19.4925527615       13.2818701076
 Hg         7.3189059730       25.5644131375       25.9172108980
 Hg        13.4406421937       13.2566455706       19.4317756634
 Hg        28.5000450689        7.4512804346       16.9598999893
 Hg        34.6267019904       11.2699580214       20.1755105451
 Hg        19.3555988943       28.8703010619       10.2477775839
 Cl        25.0418630888       14.1677218503       35.4670272391
 Hg        13.2935117326       31.3254651324       25.8513733408
 Hg        19.4544853308       10.2031790869       22.5110745153
 Hg        13.3839463455       19.3451300201        7.1368623038
 Hg        25.6225393926       22.5705087842       22.6173408910
 Hg        33.4532159587       28.6954415592       19.4216428778
 Hg        22.5278203970       22.5765806008       13.2843159720
 Hg        28.5410700201       28.6826114796       13.3912739986
 Hg        16.2166933064       10.3978752838       13.3187207254
 Hg        19.3535778210       16.3644630687       10.2706758008
 Hg        10.5421236963       19.2462766782       10.2968660808
 Hg        16.3322540047       22.5958084591       13.2812821974
 Hg        16.4030468076       19.5325374798       16.3820884563
 Hg        19.4548587522       13.2902040074       19.4524460372
 Hg        19.4630008971       13.1816592148       25.7461004454
 Hg        22.5237713402       16.3989188504       25.6308849467
 Hg        25.6997780663       19.4550052868       25.7077296851
 Hg        28.7476049318       16.3988860920       19.4224544637
 Hg        16.4299599547       16.1508717090        7.3106102655
 Hg        15.9240760335       28.7775251306        8.0967661041
 Hg        25.6804735996       25.5280383015       13.2029395497
 Hg        22.5219623131       10.2145134949       19.4550292023
 Hg        31.6412467933       16.2345588889       22.6460368202
 Hg        25.7438188387       28.7093871826       10.3533770661
 Cl        23.7344492267        5.9613368977       14.6225650733
 Hg        19.4392813446       29.2940461471        6.5618432102
 Hg        11.2278741265        7.4320940937       21.7779799155
 Hg        21.4475795859       31.2031339938       34.2019359368
 Hg        20.4035216218       11.2084270262       34.6235286583
 Cl        36.3135680410       24.1413634087       20.8099392874
 Se        30.4643044583       15.1447442662       11.5805147047
 Cl        15.7410622275       23.9218987520       36.6752244289
 Cl        30.5611698667       30.5976337493       31.0832550890
 Se        33.8737432052       30.4046004660       23.6004713305
 Se        30.2791520712       21.0940538179       11.8300036974
 Se        11.7695743031       33.8609249791       18.2435526576
 Se        17.8905100746       24.1578235184       14.8080844981
 Se        27.0996042722       11.8029628522       23.9812451347
 Se        21.0024592297       21.0268337126       14.8224590266
 Se         8.9838060411       17.5732938249       11.7366492956
 Se        14.8164913902       17.8947759315       24.1304089300
 Se        30.3407484236       14.8694241496       17.8845690247
 Se        24.0396827505       11.8169112515       20.9672780502
 Se        30.2076698446       24.0752388391       21.0460952121
 Se        17.9156058057       21.0344463037       24.1596170611
 Se        18.3611711628        8.1172976989       30.3342883232
 Se        18.0100790198        8.6036130582       24.0827117219
 Se        14.8259690642       20.9467569287        8.6778771826
 Se        17.9349862159       17.9601664793       21.0467707489
 Se        20.9916762265       11.7428336259       17.8879497443
 Se        24.1119829015       30.1631411582       14.7769122875
 Se        11.4669744199       32.7964337409       24.6344694645
 Se        30.1983367654       11.7814952778       20.9658753452
 Se        21.0375544946       24.0851875409       24.1050724075
 Se        18.0289861572       30.2094587755       27.1068576397
 Se        13.6135735939       25.6023352260       34.2362540510
 Se        24.0764482551       27.2143144881       17.9162410393
 Se        11.6906334708        8.5081285091       23.9956594695
 Se        30.1991126944       17.8786192555       27.1680683475
 Se        30.2818409295       20.9965203055       24.1095092985
 Se        14.9421092370       27.1039416157       27.1441855542
 Se         8.9732613079       11.7602346833       17.6477326119
 Cl         5.6952824665       24.0900407945       14.9866989921
 Se        27.1191660238       21.0436789813        8.6465125205
 Se        24.1325299384        8.6753343914       17.9369762093
 Se        17.9578815706       21.0600503222       17.9176591542
 Se        17.9333430847       30.3452378506       21.0015904718
 Se        17.9511575096       14.7954517553       24.1517466059
 Se        11.7367441229       21.0369021978       11.8177029330
 Se        30.2836798146       17.8977640345       21.0336512671
 Se        14.8774279454       14.9465239646       14.9239992921
 Se        27.2289028682       14.8340678818       14.7682337291
 Se        17.8111097314        8.7053380336       17.8871476459
 Se        27.3528844419       30.3910241011       17.7375928645
 Se        27.2210414360       27.2294729341       27.2422349534
 Se        11.7929136046       18.0399580353       14.9231366391
 Se        30.5023465032       18.3552197475        8.3258187767
 Se        14.6147588862       11.7811747896       11.7744529268
 Se        17.8984041606       27.2437336989       17.9054836662
 Se        20.9892683650       11.7852852198       24.0344026540
 Se        24.1279617291       14.8217694411       17.8951837291
 Se        21.0306724925       30.3333882812       17.8901482609
 Se        24.2051758098       24.1122810558       33.3153760855
 Se        20.9900286189        8.6306898422       20.9595149671
 Se        27.2083971815       24.1492887275       24.1130946119
 Se        14.8622601414       27.1880492616       20.9982074102
 Se        14.9099557297       11.6730171338       24.0806421536
 Se        21.0182220408       11.7232810094       30.1974233522
 Se        24.1784832679       33.3211891647       17.8709786890
 Se        27.2460326963       17.9565598829       11.6844994867
 Se        27.3235218416       27.4790377463       33.4259773069
 Se        11.7192102552       17.8251451037       27.2633945741
 Se         8.4324085520       18.0148079204       30.3084023096
 Se        24.0715891197       24.0924119879       21.0470695058
 Cl         5.7971649474       24.0943350170       21.1865366189
 Se        22.8608296978       10.6995854030       34.2626551282
 Se        26.9075062433       30.4861001053       30.4290648807
 Se        14.7581710760       27.2548831893       14.8343818129
 Se         8.6809670801       17.9074355206       24.0805729826
 Se        33.4349313887       14.8026897465       14.8137388655
 Se        24.2941236624       14.6449983203       30.3796620682
 Se        24.1735149358       24.1322495822        8.7142384785
 Se        15.1961238795       14.5706094764       33.4772602693
 Se        27.1271371987       20.9860566413       21.0546912423
 Se        24.0177337061       11.7825668379       27.0882376923
 Se        11.8077228703       17.9803115403       33.6812597174
 Se        27.3111144179       20.8908123370       33.3097515401
 Se        17.8232513183       27.2274479461       11.6735981405
 Se        24.0998629126       17.9177306286       27.1865287669
 Se        17.8867294593       21.0179434557       11.7430045101
 Se         8.3930964702       30.2922884541       18.0896803603
 Se        14.8053589340       33.4608069055       21.1354259756
 Se        21.0334163514       14.8105816663       14.7899416506
 Se        30.2091853127       24.0403293023       14.9617558060
 Se         8.6537683927       24.0678575539       17.9257138416
 Se        21.0362294942       20.9823832939        8.6552610565
 Se        18.9768662091       31.3048998020       34.1257042730
 Se        14.8239098639       21.0825046129       33.3923930743
 Se        30.3059286660        8.9889897829       24.3871244754
 Se        17.8739351620       30.3881220507       14.8500852050
 Se        24.1140037683       17.8507245745        8.7141521433
 Se         8.6676123502       21.0450677235       21.0450714475
 Cl        12.6466537998        5.3086389206       21.0477407878
 Se        11.7805978186       11.8599006870       21.0484998599
 Se        11.6107566082       21.0921221434       30.5056946351
 Se         8.1461192574       23.7655362734       11.6543795032
 Se        33.3577708363       24.1420148584       24.0594977676
 Se        30.3910813552       30.5368572978       27.0635825387
 Se        11.8439451197       14.7945653426       24.1263948034
 Se        30.5426982068       23.8086303904       33.4726219789