     935
 i =      167, E =    -17325.5686404368
 Cl         7.3660971836        5.8445000526        8.2796230397
 Cl         6.3911514088       10.8241547173       12.6828970062
  H         6.3862591535       11.8883027174        9.0027268443
  H         7.9487433468       11.9071407124       15.8653478862
  H         6.6910168938       18.0743811774       15.3187729103
  H         7.9175501295       19.4760119889       23.3275154657
 Cl         6.2406288198       21.6296554080       20.2463332304
 Cl         6.1868216303       23.6448650488       24.6059412787
 Cl         6.2361282970       27.9909861099       26.6396495763
 Cl         6.3186545736       29.5751465235       31.2263233399
  H         7.9378976009       33.0430653402       29.2265764212
  H         7.0812987791       32.5638928397       36.2561253124
 Cl         6.2111887452       34.0046359582       32.6898565469
 Cl         6.4746038826       34.2225251840       37.8058297088
 In         7.6570983072        8.1180929350        8.0449214632
 In         7.8898552527       10.7849129811       10.8522874144
 In         8.2685128902       14.1540052482       14.3692185125
 In         8.2616017381       17.6406650407       17.4260248286
 In         8.2758337762       20.7117852700       20.9339534105
 In         8.2827032734       24.3107066789       23.8300157931
 In         8.2797659243       27.1868984104       27.4313610095
 In         8.2717687687       30.6281617272       30.4783391394
 In         8.1098074818       33.5107449533       33.9784347237
 In         7.8021609512       36.1775287020       37.6529095797
 Cl         7.4025823290        9.0267144720        5.9322304115
 Sb         9.7611393142        9.2763249786        9.4636359856
 Cl         9.7507112092       10.2865186325       15.8791252003
 Cl         9.4874423039       12.7028245322        7.2763203941
 Sb         9.6376490836       12.6771182124       12.5224664932
 Cl        10.1455210890       12.9100952734       19.1267632224
 Cl        10.0626938930       15.9438017317        9.9354446820
 Sb         9.7815864479       15.8045483457       16.0645075367
 Cl         9.7705817670       16.6556934546       22.0710083752
 Cl         9.7767311813       18.9305542526       13.5003254112
 Sb         9.7639102917       19.3394777606       19.0575960735
 Sb         9.8023625086       22.5009266665       22.4138295233
 Cl         9.7970351688       23.0196662660       28.6909846775
 Cl         9.9415135941       25.4759532909       19.6580637227
 Sb         9.8061192144       25.7132853506       25.6729259674
 Cl         9.7561426272       26.1245868609       31.6591191932
 Cl         9.9095338618       28.6116551215       22.8808757680
 Sb         9.8035942247       29.0252094365       28.8383368225
 Cl        10.1015295325       29.5314215742       35.4671909172
 Cl        10.3512904932       31.9377653619       25.6867384782
 Sb         9.7587744793       32.0762150590       32.2782866713
 Sb         9.4323323045       35.3685984853       35.4875518867
 Cl        10.1882403008       38.5637801384       32.6200765275
 Cl         9.3621581180       36.3167012371       39.4115363832
 In        11.2476550397        7.7359560119       11.2581175539
 In        11.1607559029       11.1697152819        7.9650296037
 In        11.2455964940       11.2631124101       14.3010378945
 In        11.3356040835       14.3888498531       11.1718025059
 In        11.4190715487       14.3016972674       17.7277351324
 In        11.3934326663       17.5016773737       14.5221373168
 In        11.3981504666       17.7260396923       20.6998216388
 In        11.4965500868       20.9479587378       17.5723286442
 In        11.3985089351       20.9273144987       24.0703196582
 In        11.4738559428       24.1190549254       20.8679593630
 In        11.3930523891       24.0743451409       27.2808385842
 In        11.4713254675       27.3429459894       24.1416081340
 In        11.3949488278       27.4275471111       30.5323817536
 In        11.4941573422       30.6230082253       27.2781312219
 In        11.4860967824       30.6145205786       33.8486369814
 In        11.3389168128       33.7414027571       30.7008998599
 In        11.2447434090       33.8251703870       36.8827719420
 In        11.1825013867       36.9637357787       33.9854006103
 Cl        12.9620422324        6.3947985279       10.3585512662
 Cl        13.9089176761        6.0769933393       15.2538188323
 Sb        12.7824146488        9.5173419782       12.8120344309
 Sb        12.8781979085       12.7412569171        9.5425823490
 Sb        12.9539320949       12.7477465456       16.0039331015
 Cl        13.1898148348       13.4372610466       22.4371890890
 Cl        14.0258555338       15.0504236110        6.0094277260
 Sb        12.9726009492       16.0059602922       12.8043821885
 Sb        13.0108430864       16.0204349368       19.2368948781
  H        14.2798456053       15.4304910930       25.4900166361
 Sb        13.0234320080       19.2368537757       16.0055721027
 Sb        12.9619215264       19.2460414358       22.4776774800
 Cl        13.1438605747       19.9224021527       28.9335297343
 Cl        13.3445037399       21.9558020932       12.8127919149
 Sb        13.0620199248       22.4783301544       19.3044760162
 Sb        13.0135560619       22.4683457421       25.7253702397
  H        14.2606194452       21.8972410214       32.0296433438
  H        12.4799558187       24.4643047645       16.1882024342
 Sb        13.0467626507       25.7566782921       22.4922216367
 Sb        12.9584982751       25.6810851950       28.9800826269
 Cl        13.1920050019       26.1901512953       35.3930672287
 Sb        13.0844138908       28.9137183847       25.7724390400
 Sb        13.0018194749       28.9151831942       32.2489120781
  H        12.9340288026       28.1972840041       37.0877415083
  H        12.4226430164       31.6903194786       23.4345926471
 Sb        12.9848826950       32.1913017340       29.0353937218
 Sb        13.0589717371       32.3011374532       35.4194497141
 Cl        13.2002397794       35.3587949709       26.3501744886
 Sb        12.8439476278       35.4673721677       32.2583696613
  H        11.5539845010       35.7285437823       38.6703796404
  H        12.0079334977       37.6211856851       29.2939588829
 In        14.6097727899        8.0398052372       14.2205446675
 In        14.3819780176       11.1691516952       11.2533123642
 In        14.6947435303       11.1649415604       17.4914302459
 In        14.6900260840       14.1539418887        8.0455367699
 In        14.6084409174       14.3854453671       14.4408921668
 In        14.6293765825       14.4438394644       20.8571796805
 In        14.6738845827       17.5729756187       11.2558381576
 In        14.6203817011       17.6485171322       17.6421335241
 In        14.6886535866       17.6444700399       23.9837865068
 In        14.6802122011       20.7821445966       14.3712013407
 In        14.6732070116       20.8568736327       20.9389560796
 In        14.6247992043       20.8708867719       27.3520675080
 In        14.6955309413       24.0488746379       17.7177148239
 In        14.6140541393       24.1309178095       24.1315104809
 In        14.6917753894       24.0722848182       30.4670483733
 In        14.6770636790       27.4186378350       20.9364162404
 In        14.6696185106       27.2771077782       27.4163390632
 In        14.6117791299       27.2720008284       33.8321726139
 In        14.7550719369       30.4857048232       24.2133550233
 In        14.5995779548       30.5453026203       30.6181969898
 In        14.4453335463       30.4672029646       36.9542837564
 In        14.6254476834       33.8333907642       27.4845816309
 In        14.6107624208       33.9070500872       33.7516553111
 In        14.3656074473       36.9634774288       30.4884893786
  H        16.1098417277        7.8525758958       11.9234883441
 Cl        15.7727265553        7.3003537940       19.2472881563
 Cl        15.8564285755        9.7831018414       10.0010973302
 Sb        16.2677962265        9.4677184382       15.9432168497
 Cl        16.3541304420        9.9013888310       22.3463733336
  H        15.8923303499       11.7596709608        7.5648301388
 Sb        16.1459701329       12.7544495060       12.7911173815
 Sb        16.2001330624       12.7308226567       19.2790047285
 Cl        16.1724670085       13.4973502135       25.5464037774
 Sb        16.1692202540       16.0057308044        9.5297223572
 Sb        16.2419888838       16.0206982695       16.0326245819
 Sb        16.2971802925       16.0333365782       22.4281361169
 Cl        15.7811350522       19.4779743081        7.6332808919
 Sb        16.3378690242       19.2522222813       12.7468157641
 Sb        16.2391120990       19.2589937063       19.2755121774
 Sb        16.1799207174       19.2063070270       25.7509502193
 Cl        16.2722182846       19.9283329519       32.0340849794
 Cl        17.0179160619       22.6942916079        9.9005106800
 Sb        16.2178476972       22.4863303916       16.0085008010
 Sb        16.2480632386       22.5241586890       22.5259830338
 Sb        16.3096094930       22.4781453417       28.9016599656
 Cl        16.5409483718       25.5505720977       13.1946357010
 Sb        16.2229093783       25.8414161017       19.2145624374
 Sb        16.2649985669       25.7316943572       25.7364507755
 Sb        16.1812157966       25.6477442783       32.2165817786
 Cl        17.1770412712       26.7571979248       39.0280417538
 Cl        16.8782627592       29.0439573036       16.3568194459
 Sb        16.3465207416       29.0165560330       22.4990844458
 Sb        16.2410034120       28.9702034993       28.9919510155
 Sb        16.1824281242       28.9288645147       35.4342859841
 Cl        16.8886769336       32.0499903494       19.4503467183
 Sb        16.2089021408       32.2925493090       25.7487057280
 Sb        16.2022513646       32.1771645487       32.2456381045
 Cl        15.3284907331       31.2038668702       38.9832089029
 Cl        16.7234467836       35.3949443105       22.8890119004
 Sb        16.2339666162       35.5333093981       29.0061516081
 Cl        12.5894111172       37.7240359004       35.7281805369
 Cl        15.1282161331       38.9954838497       31.2977425236
 In        17.5767993816        7.8369822691       17.8073059039
 In        17.8144847980       11.1764981810       14.3737261512
 In        17.8034207337       11.1000413327       20.9388614010
 In        17.7315849838       14.3859767525       11.1818847203
 In        17.8243486540       14.3681808154       17.6564528305
 In        17.8213913502       14.4549046889       24.1518617609
 In        17.5151152536       17.8828535491        7.9705685479
 In        17.8957151900       17.5774823832       14.3769613230
 In        17.8914867089       17.6595774958       20.8596889469
 In        17.8173508184       17.5764997112       27.3497695943
 In        17.9749768320       20.9375609222       11.1756211040
 In        17.8257279563       20.8793329864       17.6531762823
 In        17.8190699241       20.8557421891       24.1442481480
 In        17.8859107350       20.9332999896       30.6274929376
 In        17.8927947111       24.1369805626       14.5088200050
 In        17.8243207108       24.1504939728       20.8551233953
 In        17.8976085255       24.1322910675       27.3377723670
 In        17.8134856457       24.0569641648       33.8325917540
 In        17.9731332495       27.4143642530       17.6652554488
 In        17.8981261096       27.3637949598       24.1439340369
 In        17.8126006438       27.3282656302       30.6264344893
 In        17.9858074453       27.5011832234       36.9687749783
 In        18.0394277925       30.6413365537       20.9559191840
 In        17.8327545286       30.6261493916       27.3468826341
 In        17.8068116073       30.5429914541       33.8360420828
 In        17.9644393527       33.8889933177       24.2317064461
 In        17.6642248736       33.6776218065       30.4595562434
 In        18.0435247505       37.1822785241       27.5805708155
 Cl        20.4725533887        5.9043802627       21.4688793853
 Cl        19.2053582055        9.8421164911       13.0211104918
 Sb        19.3224528309        9.4528983841       19.2951838048
 Sb        19.4565940805       12.7424693913       16.0252250785
 Sb        19.3712176926       12.7020537578       22.6272281248
 Cl        19.6342860646       13.0681748898       28.6240682016
 Cl        18.4913978964       16.9959013690        6.0498700635
 Sb        19.4978376997       15.9200996336       12.7530626231
 Sb        19.4537469969       15.9552957732       19.3176063744
 Sb        19.4784269019       16.0262081321       25.7512148159
  H        20.3224367307       16.5449982394       32.9019982529
 Sb        19.4152781008       19.2447470896        9.5229215044
 Sb        19.4329466241       19.2314259343       16.0663720950
 Sb        19.4668267958       19.2618776161       22.5271366338
 Sb        19.3827725779       19.1790906547       29.0511441532
 Cl        19.7794055097       19.8709556277       35.4946706671
 Sb        19.4899644757       22.4780317635       12.9426956090
 Sb        19.4582633624       22.4935253778       19.2902847644
 Sb        19.4687968009       22.4441294491       25.7688896897
 Sb        19.5131961505       22.5114463482       32.2623053295
  H        20.4647331185       21.8843143122       38.5841860323
  H        19.0360377253       25.7952375931       10.9813381544
 Sb        19.5365656507       25.7547175155       16.0807456051
 Sb        19.4750956946       25.7090915785       22.5322231570
 Sb        19.4585352057       25.7322881021       29.0140521375
 Sb        19.4142731322       25.6478935477       35.4831647891
 Sb        19.5646664287       28.9278171466       19.3967875244
 Sb        19.4946069669       28.9877829591       25.7838002294
 Sb        19.4232406702       28.9203412912       32.2561993903
  H        19.0039875626       32.1356547827       17.3735610449
 Sb        19.5809399674       32.2780488664       22.6109219676
 Sb        19.5014925732       32.2268994442       28.9737133965
 Cl        19.0584369435       31.7301864182       35.4550674021
 Sb        19.5077488466       35.5239004750       25.8730189020
  H        18.5788402375       37.2694901958       22.7208318635
 Cl        19.4375559945       37.9586001688       29.2843710381
 In        21.1837005577        7.9782858796       20.7118913589
 In        20.9348113859       11.0985352003       17.7338105895
 In        21.1552159701       11.1667981601       24.1399938641
 In        21.0674327275       14.4678083585       14.5450438064
 In        21.0142421132       14.3116517124       21.0022998001
 In        21.0947698586       14.3869490860       27.3417720332
 In        21.0073324790       17.6638992115       11.1750862036
 In        21.0161859930       17.6470860322       17.7338018005
 In        21.0901675260       17.6433435874       24.1451551872
 In        21.1716208304       17.6498794501       30.5487551956
 In        21.2521650984       20.6984655481        8.0560439270
 In        21.1027551991       20.8540601921       14.5196694662
 In        21.0918636502       20.8739120886       20.9263964479
 In        21.0335796390       20.7990619402       27.4305463425
 In        21.1686656736       20.9404628520       33.8923315879
 In        21.0950845701       24.0487236253       11.3257804568
 In        21.1031086971       24.1364502324       17.7265649602
 In        21.0881368466       24.0662213879       24.1477189410
 In        21.1043285435       24.1359355468       30.6274684936
 In        21.0143309126       23.9811436320       37.0247995497
 In        21.1523539769       27.3535494302       14.4475798473
 In        21.1777192350       27.3325907825       21.0087494332
 In        21.0878123342       27.3391583615       27.4091006528
 In        21.0239128132       27.2650157742       33.8455997233
 In        21.1710869099       30.5379051539       17.8207580886
 In        21.1611935504       30.6200144930       24.2100342761
 In        21.0196190431       30.5440238522       30.6303549236
 In        21.2453407461       33.8961006728       21.0283124396
 In        21.1633958280       33.9064553047       27.4169477468
 In        20.9494601938       37.0220858193       24.0484340349
  H        23.5763772789        7.9063887606       19.3977981911
 Cl        22.2189028640        7.1628742901       25.7087343390
 Cl        22.2804191817        9.5738925219       16.5173772277
 Sb        22.6596959373        9.4464620770       22.5644945198
 Cl        22.5097983980        9.9411252787       28.6073515230
  H        23.2575421321       12.9220750311       14.1319911107
 Sb        22.5847703934       12.6994521597       19.3509732879
 Sb        22.7308087491       12.7612311929       25.7793911502
 Cl        22.5409918756       13.6137002102       32.0605268953
 Cl        22.3769275847       16.4839004150        9.6386365596
 Sb        22.6534156617       16.0746970668       16.1460177782
 Sb        22.6753766388       15.9901406700       22.5240417641
 Sb        22.7235520202       16.0100014489       28.9556261583
 Cl        22.6313556314       16.4236439679       35.1438098702
  H        22.6245466676       18.3455707856        7.9521210754
 Sb        22.6334158734       19.2593980233       12.8224256267
 Sb        22.6970995648       19.2593043014       19.2863215934
 Sb        22.6954484174       19.2760003115       25.7601289969
 Sb        22.6692004071       19.2629302466       32.2484537659
 Cl        23.3306941370       20.3200533811       38.9976312578
 Sb        22.6529540834       22.5717741684        9.5621737848
 Sb        22.7137026622       22.5053016873       16.1034158329
 Sb        22.7230026472       22.4762919012       22.5388722462
 Sb        22.6664654125       22.4709052682       28.9965129902
 Sb        22.8132994027       22.5553494858       35.4891064449
 Cl        22.7329424610       25.6990032447        6.8709257735
 Sb        22.7383350007       25.7817506110       12.7728837428
 Sb        22.7512500462       25.7347424409       19.3451726385
 Sb        22.6813105258       25.7170611828       25.7627704547
 Sb        22.7446596406       25.7692284495       32.2427528349
 Cl        21.7482133804       24.9423170002       39.0242519987
 Cl        23.4586751433       28.9780298290        9.8055533212
 Sb        22.7102900053       29.0488335603       16.0586147148
 Sb        22.7756575864       28.9960662615       22.5909332197
 Sb        22.6715010031       28.9755418983       29.0055551764
 Cl        22.1584370568       28.5800531007       35.4658002782
 Cl        23.3989456328       32.0624085738       12.9733983363
 Sb        22.7510319524       32.2737154236       19.3266344228
 Sb        22.7726281929       32.2058040980       25.8815707243
 Cl        22.3253244578       31.8605770707       32.0811002884
 Cl        23.2177659447       35.3939372007       16.4731637357
 Sb        22.8366339451       35.5735585487       22.5968990163
 Cl        22.6294367398       35.1590955811       28.7439025122
 Cl        23.4601134258       38.7858654058       19.9821401799
 Cl        21.6454959144       39.1044357553       24.7845676702
 In        24.0616830997        7.8196824186       24.3769565035
 In        24.2133066998       11.1011075798       20.9579082431
 In        24.2219805306       11.0941456757       27.4972810751
 In        24.1520635319       14.3155272643       17.7211307453
 In        24.3001684655       14.3740417637       24.1412263788
 In        24.2830090494       14.4467635215       30.6898144498
 In        24.2177464962       17.6435047007       14.4456956364
 In        24.2933590165       17.5778991106       20.8676234716
 In        24.3075694045       17.6474878786       27.3525006686
 In        24.2170667864       17.5709452914       33.8318999824
 In        24.2014666416       20.9510011279       11.2458467491
 In        24.3593560503       20.8508509714       17.6555258394
 In        24.3611974023       20.8589835726       24.1465012442
 In        24.2945701745       20.8668750265       30.6216943660
 In        24.4522602005       20.9314210042       37.0285473114
 In        24.2175812344       24.2113723223        7.8894673613
 In        24.2968694685       24.1328731839       14.4524894626
 In        24.3624918518       24.0717210624       20.9347789127
 In        24.2928139096       24.0545531455       27.3427650795
 In        24.3796656879       24.1529016205       33.8273165452
 In        24.4675821780       27.3367687372       11.1732362538
 In        24.3069510602       27.4232320276       17.7246486474
 In        24.3647743049       27.3403512442       24.2022825019
 In        24.2918887987       27.2754770524       30.4777485700
 In        24.4548947820       30.6265629717       14.5363619257
 In        24.3791993832       30.6219966338       20.9401681291
 In        24.3808540485       30.5312871525       27.4347933990
 In        24.4658129228       33.8880113766       17.8117693237
 In        24.2249543630       33.6863106811       24.0552574468
 In        24.6756239237       37.1853992195       21.1700692039
 Cl        25.2233247913        6.0934445648       23.3273740997
 Cl        26.9944509670        5.8937438008       28.1342907473
 Cl        25.4267526268        9.5842209305       19.6081069337
 Sb        25.7859474235        9.4340764581       25.8916082177
 Sb        25.8984286123       12.6710364664       22.5586752534
 Sb        25.7989532836       12.7023158064       29.1415013260
 Cl        26.1836329796       13.5394899068       35.6623609692
 Cl        25.2566146850       16.0407340971       13.0507207741
 Sb        25.8982165226       15.9392085437       19.2248084476
 Sb        25.9132934407       15.9648132898       25.7908363318
 Sb        25.9337280729       16.0076225417       32.3140303588
 Sb        25.9481488030       19.1773003522       16.0302204932
 Sb        25.9126574787       19.1815595058       22.5206557970
 Sb        25.9145789401       19.2476532532       29.0165852496
 Sb        25.8347437079       19.1038786408       35.5034283182
 Cl        25.4035784276       22.8249414656        6.4246947793
 Sb        25.8965445868       22.4756886086       12.8567651216
 Sb        25.9528638152       22.4361311911       19.3293332859
 Sb        25.9913583983       22.4828930503       25.7568286980
 Sb        25.9125105823       22.4482382358       32.2594813204
 Sb        25.9792224117       25.6421820669        9.5381069097
 Sb        25.8829791790       25.7464704459       16.1196055485
 Sb        25.9516930605       25.7011810208       22.5693560554
 Sb        25.9255740494       25.6357916660       28.9593824355
 Cl        25.6377998587       25.5580954498       35.2329914378
 Sb        25.9607151058       28.8945663503       12.9655723264
 Sb        26.0003569753       28.9874825094       19.3327283665
 Sb        25.9772516463       28.9266088811       25.8205990838
  H        25.8786757142       29.4358139807       30.9022268398
  H        25.2111877462       31.9360998552       11.0982342276
 Sb        26.0444180680       32.2645696244       16.1540460838
 Sb        26.0507855450       32.2258069507       22.5539842429
 Cl        25.7061045674       31.5744406454       29.0796145147
 Sb        26.0646654667       35.4940116380       19.4329233279
  H        25.0963077444       37.1217645959       16.2935754741
 Cl        26.0961580565       37.9534770964       22.8551994322
 In        27.6595991578        7.9765425409       27.3411327507
 In        27.4154767521       11.0780410240       24.3138528432
 In        27.4166060015       11.1011025903       30.7732872897
 In        27.3518299674       14.5242798242       21.1096056886
 In        27.4254251119       14.3044264428       27.5030517251
 In        27.5895186209       14.4538631431       33.9815225032
 In        27.5754575970       17.5799487705       17.6649132463
 In        27.5235213321       17.5751319174       24.1587709877
 In        27.5151920540       17.6490834059       30.6845620537
 In        27.5020912185       17.5023023803       37.0459409819
 In        27.4921241685       20.9444902359       14.5395530115
 In        27.5686009765       20.7914038419       20.9342409486
 In        27.5732902635       20.8541853626       27.4236294864
 In        27.4342033718       20.7754076326       33.9040332174
 In        27.5149571337       24.0702920637       11.2458617354
 In        27.4965444630       24.1330261387       17.7328197208
 In        27.6433441452       24.1310444351       24.1575120594
 In        27.5129751824       24.0559021101       30.6349876699
 In        27.6755244479       27.2781586475        8.0967513784
 In        27.5867319397       27.2833545221       14.5325351474
 In        27.5722478732       27.2878411994       20.9420569748
 In        27.5749215176       27.2814237103       27.4167299517
 In        27.5152960608       30.5431665038       11.3929599832
 In        27.6543144582       30.6214587204       17.7343981500
 In        27.5729751439       30.5427918120       24.2080900099
 In        27.7354222185       33.8268019355       14.5501481711
 In        27.7212113277       33.8428756336       20.9420105937
 In        27.4986641330       36.9563110847       17.5770059967
  H        29.3449839458        7.6337733072       33.1981117145
 Cl        28.7397959385        9.5357145424       23.1003621097
 Sb        29.0741605980        9.4889077629       29.1956278754
 Cl        29.2912866482        9.3923218087       34.8635770820
 Sb        29.0626434701       12.6773775557       25.9180233862
 Sb        29.0523827717       12.7085563989       32.3759631243
 Cl        29.7132035340       14.1266670975       39.0917740393
 Cl        28.8614825264       16.2100480347       16.2663181174
 Sb        29.2067976691       15.9416264339       22.6009225695
 Sb        29.0672113435       15.9647571118       29.0573518878
 Sb        29.2934150391       16.0702261465       35.5421479632
  H        29.8060761290       19.6754520043       13.9036971490
 Sb        29.1678917402       19.1847636012       19.3098724575
 Sb        29.1366895197       19.2095286878       25.7656653076
 Sb        29.1585563952       19.2536396856       32.3198769902
 Cl        28.0435077032       18.7530495504       38.9646869083
 Cl        28.9057985047       22.5453462183       10.1090352216
 Sb        29.1100293104       22.5282882147       16.1325877073
 Sb        29.1823939442       22.4502947898       22.5172989360
 Sb        29.1923029103       22.4919947949       29.0416187287
 Cl        28.4994405144       22.1453114950       35.5305311462
  H        30.0938523036       25.9917910059        7.8818835729
 Sb        29.1245340853       25.7046812649       12.8497583744
 Sb        29.1909621818       25.6813631391       19.3212348163
 Sb        29.2644472194       25.7262006123       25.8245934819
 Sb        29.0797512674       29.1051237301        9.6291738875
 Sb        29.2006857962       28.9649017011       16.0879815189
 Sb        29.1542761863       28.9278323173       22.5581938667
 Cl        28.7470196573       28.6029536708       28.9676764699
 Cl        29.0693286476       32.3105879336        7.1156815959
 Sb        29.2149031910       32.2591060792       12.7877089352
 Sb        29.3327939739       32.1667263955       19.3956848733
 Cl        29.9913672381       35.5573003857       10.0059191897
 Sb        29.3397706791       35.4538510656       16.1458461902
 Cl        28.2448604117       39.0449833003       18.2567908208
 Cl        30.4816715832       38.7833225408       13.5270448848
 In        30.7082799023        7.9679163676       30.8597614274
 In        30.6948938398       11.1032203233       27.5858549765
 In        30.7056414070       11.0264025703       33.9059711373
 In        30.7071271964       14.2235845174       24.2870790221
 In        30.6365730815       14.3728633150       30.7645510329
 In        30.9288640148       14.4432864328       37.1061780803
 In        30.7749415098       17.5803771674       20.9416092911
 In        30.6955442681       17.4931617515       27.3467130040
 In        30.8549112156       17.6621840338       33.8932473373
 In        30.7169479301       20.8437317768       17.6713539690
 In        30.7709191185       20.8490928912       24.1672387769
 In        30.7120423958       20.7127114892       30.5442448122
 In        30.7068984949       24.0785991490       14.4571222740
 In        30.8478823554       23.9831212481       20.8515626617
 In        30.8550446351       24.0586515481       27.4231255103
 In        30.6279926541       27.4208076818       11.2400752361
 In        30.7868155161       27.3416551065       17.7210006211
 In        30.7781568189       27.2526733308       24.0506117718
 In        30.6159023541       30.7770051740        7.9726534096
 In        30.7928451038       30.5387810389       14.3784065651
 In        30.8728054672       30.4607875333       20.9934329393
 In        31.0176956280       33.8237030131       11.2598069711
 In        30.8714279875       33.6861855937       17.6462584741
 In        31.2522578244       36.9502040749       14.7668074910
 Cl        31.5059469711        6.0373281404       29.8096878303
 Cl        31.8710954029        9.5453819971       26.2520106475
 Sb        32.4481386723        9.5791674152       32.2641285249
 Cl        32.4151872746        9.5398240057       38.5954269380
 Cl        32.0210135680       12.8355663659       22.9220322484
 Sb        32.2990593593       12.7741506287       29.1548445843
 Sb        32.2617359553       12.5661926793       35.6080706903
 Cl        32.1449586004       16.2718976176       19.5466315500