    1307
 i =      315, E =    -11441.2253508826
 Cl         6.4143872951       22.3720758506       25.9238268817
 Pb         6.8047126807       30.5677570306       22.7325978873
 Cl         6.5115843222       29.0040626328       30.5408989470
 Pb         7.0359021508       22.9824850179       28.6220783111
 Cl         7.2369061521       23.0955884957       22.1907598602
  S         7.2119508922       26.3725915817       24.2028915085
 Cl         7.1408531161       30.5197800628       25.3752850905
  S         7.5703023647       20.2008771484       29.0754699062
  S         7.3582621059       32.9754959543       28.6664082351
 Cl         7.5395329874       23.6346843730       31.3680663136
  S         7.8226338897       26.6495505065       33.9414121547
 Pb         7.7532591634       25.9084215777       21.5948369323
 Pb         8.3295161372       20.0611902026       26.5215215390
 Pb         8.1766093518       33.3554403445       26.1972467742
 Pb         8.1688239741       26.7419916246       31.2546021113
  S         8.2967823420       25.2669015090       18.1808494022
  S         8.5962506439       19.2059942995       22.3947966849
  S         8.4872947760       32.5067213781       22.2796521449
  S         8.3725965724       25.5503090536       27.5881611102
  S         8.8589087921       19.1299605284       32.3522953306
  S         8.5313552151       32.2965256262       31.9621475657
 Pb         8.2225865219       23.0963556020       16.4786250703
 Pb         9.4756630664       17.6720515010       20.4990952741
 Pb         9.6796528395       31.5438830619       20.0085243800
 Pb         8.5600973899       24.2428445085       25.1047047192
 Pb         9.2049980844       17.6787249205       30.1851214870
 Pb         8.5157436446       30.7191485841       29.7534656841
 Pb         9.2546496070       24.3397464998       34.0136369641
 Cl         9.7690926538       21.9830876643       18.5563504875
 Pb         8.8833989146       26.8027523706       16.1176878706
 Cl        10.0438968241       15.7394968806       22.5728821570
 Cl         8.6932270555       28.8398447163       21.7180759434
 Pb         9.5310240364       21.6447856587       21.6339102048
 Pb         9.5346141759       35.3890266432       21.5013538477
 Cl         9.8149312654       22.4159599289       27.6250707784
 Cl         9.5059788454       35.7238690259       27.2519221616
 Pb        10.4160218880       14.8159624078       25.4668329252
 Pb         8.9296175617       27.6740875552       25.8865374259
 Cl        10.2112289259       15.7922879054       31.9992128363
 Cl        10.0830464029       29.0456405894       32.0058676359
 Pb         9.6656816119       21.1742290154       30.8257037485
 Pb         9.1688591120       34.2765731388       30.2517228405
 Cl         9.5836644738       23.0353630995       36.6675968698
 Pb         9.9562444126       28.1783448674       34.7558475406
 Cl         9.7460474791       20.8744132035       14.8278862516
  S        10.8355104530       18.2403812092       17.3729582328
  S        10.7758772452       31.5506983592       16.9570401164
 Cl        11.2642841733       27.3981073038       17.2380460673
  S        10.3560222638       25.1303360718       21.6977235294
 Cl        10.5039577829       21.4266072311       24.3309854788
 Cl        10.7441873823       35.0243979572       23.8700931519
  S        10.6696207291       18.4681147895       26.5567229789
  S        10.5592421338       31.9336354817       26.1563146907
 Cl        10.7032561513       14.7743772772       28.3501280099
 Cl        10.6756212377       28.1235565373       28.6513642394
  S        10.8096473226       25.3352843810       31.1860609302
 Cl        11.0866463150       21.7829226000       33.4481024234
 Cl        10.8028089136       34.9229075546       33.1695731364
  S        10.8046744774       18.8083082071       36.0412850659
  S        10.8999368990       31.6697121731       35.5274346247
 Cl        10.6385392503       28.1679917310       37.6587976935
 Pb        11.1768830651       18.5717201054       14.7701081939
 Pb        11.4989818189       31.6886314912       14.3422584356
 Pb        11.0659141937       24.8474978791       19.0608753023
 Pb        11.2297296283       18.6130364725       23.7592329594
 Pb        11.4381039090       32.0323749956       23.5849904098
 Pb        11.1083816156       25.2879004403       28.3148692500
 Pb        11.5518498694       38.4605414057       27.0969364115
  S         9.6908202513       24.6007409665       14.7968667947
 Pb        11.3481775786       18.3058349324       33.3718647326
 Pb        11.1049143726       31.9157801470       32.7054860764
  S        11.9679948510       18.8326170292       20.6168734605
  S        11.2664220039       33.7171647131       20.3160754138
 Pb        11.5499765936       25.5109093544       37.5552325386
  S        11.7014918435       12.6965920332       24.6480801970
  S        11.2600106400       26.1276849415       25.1249961959
  S        11.8744927493       39.6485594346       24.7707102767
  S        11.7528147385       19.2401484174       29.8949369219
  S        11.5318993087       32.6670577720       29.4948229752
  S        11.5450681888       25.8395370791       34.7623627817
 Pb        11.7475668719       27.0743890143       13.2495590420
 Pb        12.3462786185       20.3291776281       18.2514213788
 Pb        12.0415642572       34.0526979312       17.6283795025
 Pb        12.2774549820       13.3648222466       22.1151169432
 Pb        11.9278086778       27.3154837910       22.6300462131
 Pb        12.2604307687       20.5883697142       27.4558010438
 Pb        11.9764484986       34.1483987047       27.1475913034
 Pb        12.3099541486       13.7025150766       30.7315402268
 Pb        12.5391465821       27.5266690335       31.1580811838
 Pb        11.8025847182       21.3672489606       36.2258227671
 Pb        12.3181540197       33.9459762840       35.6303744775
 Cl        12.3365862443       22.3459946996       11.7178636376
 Cl        13.1201987923       15.6425241025       15.8441089475
 Cl        13.0339011153       29.3821636706       14.6334920856
 Pb        12.1125318939       23.1625687054       14.5163921747
 Cl        12.6560519558       22.5470666843       20.8404325377
 Cl        11.0324680751       37.6854817175       21.1752217031
 Pb        12.7966006025       16.7480816329       18.7008614033
 Pb        12.9452311049       30.2200675993       17.9896823487
 Cl        12.9280457873       15.9584154354       25.4256150402
 Cl        12.8591775423       29.5448932960       24.6354189986
 Pb        12.3856521218       23.9062616321       23.7626002527
 Pb        12.9094291377       37.6483404698       23.3285859052
 Cl        13.0426839196       22.7184418705       29.9263099559
 Cl        12.8776546055       35.9676511285       29.7106000064
 Pb        12.7288153456       17.1147325482       28.2047717266
 Pb        12.4817178061       30.5739525432       27.8006189399
 Cl        13.1936739997       15.9661642438       34.6608380803
 Cl        13.1752245761       29.0404864954       34.0588219950
 Pb        12.9060599184       24.0619415541       32.6645871458
 Pb        13.3610413106       36.4134175223       32.5579471258
 Cl        12.9129447352       22.6011883350       38.8135541329
 Pb        12.7854338523       17.5105912489       37.2592303784
 Pb        12.8931464124       30.2322502228       36.7494906592
  S        12.9050384314       27.5822291551       10.8992752103
 Cl        13.0262573242       31.3995126202       11.5371506801
  S        13.5037637103       20.0369008497       14.8662602633
  S        13.5602946305       33.3965837486       14.7500908003
 Cl        13.4578947647       23.4932348416       17.1872576670
 Cl        13.4428633627       36.6091923820       18.1167187474
  S        14.1607676578       13.3201653137       19.0930173480
  S        13.6699544886       26.5825597522       19.5463222379
  S        15.2153507020       40.9670252956       18.8118160300
 Cl        13.5744895816       15.8638754892       21.9924342803
 Cl        12.1138258252       30.2008315901       20.7167965799
  S        13.8588986022       19.8925685918       24.1234004674
  S        13.9175638083       33.2539802446       23.8484042654
 Cl        13.6527365759       10.1859878626       26.3882669675
 Cl        13.7242037490       23.6357927249       26.3351018939
 Cl        13.5736595212       36.7209073067       26.2078192673
  S        14.1109786563       13.0441465319       28.7930122041
  S        14.0071032718       26.7301430404       28.7004203540
  S        13.5529221313       40.0294404526       28.1828460257
 Cl        13.6484303246       16.1306840443       30.9563713922
 Cl        13.9083920383       30.3209918054       30.6452338014
  S        14.0377351329       19.9261917101       33.3786766438
  S        14.0347215973       33.6504958195       33.3790178274
 Cl        14.0493009557       23.5448011044       35.4393797076
 Cl        13.8162975103       36.8501376668       35.3594329682
  S        14.0184440454       26.5895642269       37.8610175658
 Cl        12.5160389752       18.7683503164       39.7747405888
 Cl        13.1758635490       31.0252923291       39.5967181822
 Pb        14.3421860222       20.5169138940       12.2142852219
 Pb        14.5864157357       33.6650134246       12.2605806860
 Pb        15.0262533829       13.5917849157       16.5998207370
 Pb        14.3999232720       26.3906190243       16.7448094275
 Pb        14.5845479863       20.1552399752       21.5224050676
 Pb        14.6046730449       33.7916107662       21.0506561190
 Pb        14.3207457079       12.8849110262       25.9684404185
 Pb        14.5696252187       26.5981607029       25.9203307252
 Pb        14.4712858501       40.6878499933       25.6028015848
  S        13.6325771927       25.4003583285       13.9462648184
 Pb        14.6549001295       20.2121432628       30.7426934678
 Pb        14.3542842635       33.2445131475       30.0370881750
  S        14.7118027627       18.5943311487       18.1706476380
  S        14.3245278901       32.6399857630       18.1962000613
 Pb        14.8187788755       13.5007540959       34.6576255179
 Pb        14.8169992446       26.6984035902       35.2553482173
  S        14.8547733999       12.3005977460       22.3891561112
  S        14.2705872724       25.7416171732       22.9334202249
  S        14.9781389482       39.4386939087       22.4741325489
 Pb        14.6793923350       20.4728589987       39.4707041337
 Pb        14.6541312408       33.3232692255       39.2796291476
  S        14.7658924877       19.0667970978       27.4273273434
  S        14.5355774680       32.5082356385       27.3590851428
  S        14.6419819965       12.5272443502       32.1237625239
  S        14.9478880643       25.9538656106       31.9534211006
  S        14.6381314441       38.9861846390       31.5436189447
  S        14.9334206103       19.2878145309       36.6768130662
  S        14.7811031404       32.6940672789       36.6454071862
  S        14.8498294199       26.1755638585       41.4426253556
 Pb        14.3610938460       25.2476537518       10.8097987128
 Pb        15.2702481157       17.9915601209       15.5702459414
 Pb        15.6144117224       31.6025773515       15.4887748198
 Pb        15.4499210493       11.0964777919       20.0545915060
 Pb        15.0358012700       24.4494916551       20.5065626259
 Pb        15.3103300952       38.4013702349       19.7260838873
 Pb        15.3512442413       17.7619666097       25.0002846113
 Pb        15.5787621743       31.1019279895       24.1108017887
 Pb        15.4758876023       10.6990452666       29.9439937543
 Pb        15.4180330334       24.5388478179       29.5438989542
 Pb        15.1355667147       37.9077126989       28.9975808905
 Pb        15.5632150525       17.8902550630       34.2765291807
 Pb        15.6540517104       31.2716361145       33.3617360729
 Pb        15.4905664886       24.6950417310       39.2879763778
 Pb        15.5294963939       38.6089446963       37.3829408198
 Cl        15.5751939178       29.8287628421        9.2686457499
 Cl        15.8887852967       22.4957513572       13.2973197903
 Cl        15.9651212972       35.9994925131       13.7215626807
 Pb        16.3190387343       15.8453178034       11.5518039515
 Pb        14.9067817335       29.2023805752       11.8459779916
 Cl        16.7102150974       15.5820046521       17.4194789850
 Cl        15.9781396884       29.1540793097       18.2292458742
 Pb        16.1867121336       22.1967865372       16.4033026817
 Pb        15.7564487547       35.3635076862       16.7168996754
 Cl        16.7427330120        9.0815561016       22.3188858402
 Cl        16.1208532960       22.4213296523       22.8701903725
 Cl        16.0338363270       35.8681908628       22.8751665335
 Pb        15.8751524688       14.5501161698       21.0520604638
 Pb        15.7471890481       28.0227031031       20.8239860904
 Pb        16.3252816480       41.5497655552       21.2673182587
 Cl        16.2019469486       15.7541629362       27.5943344667
 Cl        16.2632895855       29.1839491150       27.3415818696
 Cl        15.9016838425       42.7091838929       27.5048503741
 Pb        16.0456651955        9.0383267768       25.6505902403
 Pb        15.8911207830       21.3301649894       25.7217802896
 Pb        15.8022722890       34.5455654766       25.5867420474
 Cl        16.8041925761        9.0252680138       31.9044937016
 Cl        16.2201123477       22.5139462162       32.0704198546
 Cl        16.2565464609       35.9408650727       32.1054610453
 Pb        16.0029266888       14.4083266374       30.3200392201
 Pb        16.1391486146       28.1364348158       30.1643596416
 Pb        15.3633276730       41.3240075610       30.0543669802
 Cl        15.9639257278       15.7806255893       37.4825795473
 Cl        15.9886028448       29.1810143675       36.3899327547
 Pb        15.8845254201       21.4245807439       34.9309480812
 Pb        16.0468770538       34.7254181782       35.0498084365
 Cl        15.4422769438       22.1409696481       41.7033506923
 Pb        17.0475857282       15.7531647305       39.9325074811
 Pb        15.4189861749       28.3022860612       39.8804839212
  S        15.9124635177       25.1296877578        8.3093203397
 Cl        15.9723473656       21.1249533245        9.6453985914
  S        16.8380763454       18.3655411687       12.2487684349
  S        16.6091472445       31.9032766125       12.7147168895
 Cl        17.0900147404       14.3658954003       13.7803163248
 Cl        16.3203881253       28.0366102158       14.8675349089
  S        17.3995548481       11.6882983722       16.8846676434
  S        16.7459071768       24.9218523155       17.0379820463
  S        17.1551253181       38.0232703453       17.0349795362
 Cl        16.6404155672       21.4554061025       19.1064625884
 Cl        16.7754247155       35.1830710517       19.4392235484
  S        16.9050596454       18.5233348590       21.6764384615
  S        16.5524205117       31.9431856861       21.5289739764
 Cl        16.7918370428       14.6331016456       24.0496751592
 Cl        16.8346667883       28.0001633429       23.9289675798
 Cl        16.9753267551       42.2719424229       24.1975379038
  S        17.0810335515       11.5081079486       26.0975137707
  S        16.9817347265       25.1650272567       26.3245041159
  S        16.6357925164       38.8444360757       26.0309959925
 Cl        16.4815701198        8.2841008059       28.2003069046
 Cl        17.0208672878       21.5939514342       28.5674660978
 Cl        16.8719429067       34.8338145378       28.5629177828
  S        16.9768846945       18.4996424564       30.9921985300
  S        17.0648311095       31.7597273284       30.9349838822
 Cl        16.9541003808       14.9151519094       33.6529523609
 Cl        17.2487059227       28.3653105498       33.0614069831
 Cl        16.8506762530       41.6590269652       32.9095017036
  S        16.9705143503       11.9941511333       35.8909062636
  S        17.3561599171       25.3537423176       35.7109826205
  S        17.1780528894       38.4479786337       35.2713708788
 Cl        17.1505123451       21.7893490534       37.9394139555
 Cl        16.1841827079       36.0257135481       38.1999251628
  S        17.1032899238       18.6212310442       40.2573017301
  S        17.0471755581       32.2267531695       39.8256438440
 Cl        16.6331808649       29.2217619471       42.4746996450
 Pb        17.5810562497       18.9435918782        9.6473686126
 Pb        18.0833237685       31.5613460348        9.7244288677
 Pb        17.9889612445       11.6688940526       14.3418170123
 Pb        17.4274411217       25.5191056063       14.0869873539
 Pb        17.9761757458       38.2459316116       14.3841914655
 Pb        17.6320475416       18.6008550295       19.0229356429
 Pb        17.6653565360       31.8859230827       18.8363543615
 Pb        17.7767865962       12.0172309385       23.4806926128
 Pb        17.7366259987       25.2396451260       23.5480595075
 Pb        17.4730504118       38.3741649878       23.4584993932
  S        16.8652181800       26.3902846156       11.4318345535
 Pb        17.6368336990       18.3208472538       28.3296249081
 Pb        17.5756550272       31.9590905048       27.9486327117
  S        17.6871884669       19.4158096679       15.7467364227
  S        17.6184037296       33.2845357470       16.1691723696
 Pb        17.8465660533       11.4849959111       33.2707245071
 Pb        17.9113338127       25.4010411593       33.0150675522
 Pb        17.2419237675       38.7576208374       32.2734092093
  S        17.9956580476       12.3751094693       20.2818277277
  S        17.5384440273       25.9951915238       20.5664170455
  S        18.0639475591       39.3102538668       20.3658736557
 Pb        17.9386250063       19.0506612090       37.6509325654
 Pb        17.9631058788       31.6717084778       37.2698532652
  S        17.7970317156       19.3228609260       25.0607341745
  S        17.7703387520       32.6262659785       25.0598897194
 Pb        17.4966038476       26.4422282955       42.3171677503
  S        17.8480055255       12.2199657238       29.6986913851
  S        18.0717215109       26.0770324835       29.5619345110
  S        17.4798342653       39.6604612644       29.4016761258
  S        18.1027548506       19.4470497657       34.1991076019
  S        17.9931492084       32.7243461455       34.1539125573
  S        18.3346588712       13.1324116002       39.1689746910
  S        17.6926364848       26.5975045016       39.4010866121
  S        17.8556011182       39.5599706357       38.4840426806
  S        18.5417273010       19.9425691363       43.6352927705
  S        18.3814011986       33.3934413270       43.1248679008
 Pb        17.3512813124       27.3467339166        8.8033437103
 Pb        18.6798620700       20.7179498520       13.3964685559
 Pb        18.4956601905       33.9335088217       13.2380956914
 Pb        19.0141128903       13.6844069292       18.0438236045
 Pb        18.5028322255       27.3208263378       17.3561419606
 Pb        17.7663457072       40.5929854621       17.9287991575
 Pb        19.1374643763        7.4825448673       22.6509841604
 Pb        18.6286239416       20.5715856290       22.5484437462
 Pb        18.6030500401       33.9120373326       22.1549827374
 Pb        18.5777990566       13.6782383576       27.3012430549
 Pb        18.5344802190       27.3312755338       26.9769252590
 Pb        18.1041755579       41.1693319307       26.6768510897
 Pb        19.5813460578        7.4302420830       32.1785744087
 Pb        18.5857799974       20.6741284993       31.6718289430
 Pb        18.4986010435       34.0268287514       31.6000673303
 Pb        18.4554628219       14.2201231903       36.5765197820
 Pb        18.5317965318       27.6146914051       36.8591775162
 Pb        18.5768065646       40.6316273288       36.0674415427
 Pb        18.1105814233       21.5664179490       41.4537051855
 Pb        18.5364108928       34.3989404969       40.5963461437
 Cl        18.5183226776       15.6813510013       10.1880790559
 Cl        19.1698906775       29.5550444828       11.3124279069
 Pb        17.7374491897       24.0420990929       10.0040902810
 Cl        19.0104212103       22.6038133313       15.8401549401
 Cl        19.7625855031       36.3208903674       15.0563319139
 Pb        19.1020330543       17.2790741883       14.5677542699
 Pb        19.2112690136       30.0869782379       14.1838467928
 Cl        19.0912052078       15.8770117440       20.5402190346
 Cl        19.1026394892       29.4294721958       20.6444403003
 Cl        19.1957386957       42.7873188398       20.5064512342
 Pb        19.1003172488       10.1193500159       19.1059112636
 Pb        18.7880347548       23.9561387548       19.0131701293
 Pb        19.2955061061       37.1648611860       18.7600991456
 Cl        19.1144002774        8.4054524120       25.1428952575
 Cl        19.2653124875       22.6119880032       25.1786446162
 Cl        19.1270925038       36.0972432191       25.1907310920
 Pb        18.8277184613       17.0040031556       23.4964148190
 Pb        19.4752946373       30.0826420154       23.4747449516
 Pb        19.6485598540       43.9535204917       23.3530430495
 Cl        19.2287683946       15.8188834051       29.7315397761
 Cl        19.4614853935       29.3010201470       29.7952732583
 Cl        19.1666318537       42.8305885844       29.9764788765
 Pb        19.2348905295       10.0517152582       28.3613285426
 Pb        18.9998586369       23.7841400126       27.9625205447
 Pb        18.7077834600       37.4948238420       27.7572123084
 Cl        19.0994302119        9.4056987835       34.8133222889
 Cl        19.5696278206       22.7866737435       34.1653637405
 Cl        19.5038550541       36.0996440300       34.2076863506
 Pb        19.1103497590       17.2281761435       32.6945581146
 Pb        19.3113191568       30.5285839018       32.5456536415
 Pb        19.3122559561       43.0033983607       32.5910847547
 Cl        19.4477459527       16.4618537950       38.7692300722
 Cl        19.4843688551       29.7639461430       38.9275331261
 Pb        18.8804815271       10.8793549200       37.6791661832
 Pb        19.4977707473       23.7965944235       36.8524778672
 Pb        19.0204007735       37.2587696961       37.2204147756
 Cl        18.7020102544       23.7133284260       43.0592023096
 Pb        19.3074488012       18.0476281645       42.0169983089
 Pb        18.9025657019       30.9416590041       42.1339769208
 Cl        19.4268610339       30.1768910339        7.7963937605
  S        19.7940076433       20.3261449043       10.2045702232
  S        19.8567796315       33.5263394084       10.5941724965
 Cl        19.7796244791       23.9233995960       12.5852320592
 Cl        19.2897732439       38.0450146587       11.5453121935
  S        20.4913550872       12.4092426608       14.6592163661
  S        19.6786651773       26.9326601253       14.7706941707
  S        20.1197323010       40.2001859690       14.6573464912
 Cl        20.3659809462       16.9902638561       17.0438698716
 Cl        19.7469288446       30.1284830610       17.1113703961
  S        20.1006154862       20.1394633148       19.5765261849
  S        19.8473626688       33.4157276965       19.5286191987
 Cl        20.3570577175        9.7255654791       21.7396098824
 Cl        20.0412477279       23.6782479744       21.6882071702
 Cl        20.0654203649       36.6509981394       21.7229536812
  S        20.2697980772       13.3308266726       24.1355701424
  S        20.1559789005       26.6096319483       24.0164149007
  S        19.9643232457       40.1850516037       23.9196585668
 Cl        20.0057348270       16.7678076738       26.2597608657
 Cl        20.1669535993       30.2117472807       26.3220364755
 Cl        19.8187564649       43.6813698557       26.1498625796
  S        20.5477377789        5.8470987555       30.3060226245
  S        20.2193815967       19.7833825905       28.6621127237
  S        20.0991072684       33.3561311729       28.5421440544
 Cl        20.3542819391        9.8613611930       30.9567518503
 Cl        20.3241496663       23.5513356233       30.7734614598
 Cl        19.7818753436       37.0437274690       30.5351246916
  S        20.3276206681       12.8028466059       33.5051585080
  S        20.4571948275       26.6087626819       33.1176984752
  S        20.6847597970       40.7103930360       33.0202202344
 Cl        20.3573569376       16.9822774460       35.3540204545
 Cl        20.2728689747       30.1061425516       35.3720888739
  S        20.5645664275       20.2418478630       37.7291629562
  S        19.9949159572       33.5433219055       37.5619404045
 Cl        20.2731348160       23.8479765142       39.7833248701
 Cl        20.4984513295       37.3710389065       40.1027962500
  S        20.4201475685       27.4541226879       42.7144808442
 Cl        19.5694419475       30.2763372854       44.8011647208
 Pb        20.7484754350       20.6207804944        7.6834911834
 Pb        21.1186239508       13.1322913694       12.0696990231
 Pb        20.7674457758       26.6065784533       11.7828405006
 Pb        20.7914031188       40.1970146475       12.0736426825
 Pb        20.9114128868       20.1633184945       16.8570514464
 Pb        20.8070442038       33.5412145865       16.6036773184
 Pb        21.1830483555       13.4686675210       21.5473890428
 Pb        20.8987827426       26.6803913431       21.2627961911
 Pb        20.6433800447       40.3175112736       21.2313745817
  S        19.7759217526       25.7892206516        9.1780767949
 Pb        19.8469131857        5.9534625372       27.5642390979
 Pb        20.8441396454       19.7053259475       25.9630757241
 Pb        20.7505369216       33.4429040872       25.8426257416
  S        20.8313638340       19.1410197442       13.7555415725
  S        20.6104051396       32.4156504457       14.0438787019
 Pb        20.8720282123       13.2060978874       30.8720593077
 Pb        20.8525870023       26.7237907669       30.3214623093
 Pb        20.8089995802       39.8520258962       30.1873089693
  S        21.1157787732       11.6886873658       18.4163604763
  S        20.6526948230       25.7913576301       18.2186116251
  S        20.9507060632       39.2882333889       18.0686194407
 Pb        21.0679389551       19.9370448975       35.0303560188
 Pb        20.8942723229       33.7262960232       35.0065879777
  S        20.8115851872       18.7674162201       22.9046008570
  S        20.8522630470       32.3323614492       22.8640015148
  S        21.0201759842       46.2720153532       23.1661535883
 Pb        21.2241054385       13.8421634756       39.4828535571
 Pb        21.0971865620       26.6527658714       39.6427650443
 Pb        20.9646484553       39.9654138532       39.3560942380
  S        20.8865130862       12.0870618443       27.6316522230
  S        21.1339070781       25.6864276453       27.2647819089
  S        20.9527202906       39.1878521231       27.2082413053
 Pb        21.1000657001       21.1193107688       43.6854152213
 Pb        21.0612747118       34.0827580814       43.5085580582
  S        21.1206097997       18.9969243939       31.9185709190
  S        21.1834361726       32.6148249152       31.8009591410
  S        20.9998637398       12.6160167838       36.8733951628
  S        21.0550010482       26.1468938018       36.8264913680
  S        20.9209563764       39.2265523453       36.5874699340
  S        21.2644642465       19.7621345734       41.1034237613
  S        21.0722777667       33.1840851025       40.8018186442
  S        20.4672033005       26.7424599836       44.6930730894
 Pb        20.9760609985       24.9249945501        6.9393713601
 Pb        21.8842330817       18.2238432662       10.5965141092
 Pb        21.8947194666       31.6735229041       11.0949321354
 Pb        22.0264644140       10.5190180078       16.1249637032
 Pb        21.3486886467       24.8609798157       15.6296670617
 Pb        22.0684920497       38.4670727986       15.6061428124
 Pb        21.4668120739       17.8895480510       20.3613772402
 Pb        21.5561893097       31.4417685427       20.2513140276
 Pb        23.0896271015       45.3653440873       21.6098293600
 Pb        21.6420484773       11.2153169380       25.1119812837
 Pb        21.6256268855       24.3953495802       24.7624454995
 Pb        21.5205539646       38.0419631209       24.5420961795
 Pb        21.7017991252       17.6215320832       29.4650879421
 Pb        21.7075170214       31.3007580384       29.2766562224
 Pb        21.8215092333       44.4833163098       28.7449819412
 Pb        21.6710856455       10.4605608944       34.7107656617
 Pb        22.0687352569       24.4226488644       33.2870925440
 Pb        21.8934336534       38.1909277745       34.1005901223
 Pb        22.0519526019       18.1372739217       38.8852530756
 Pb        21.7732801306       31.5711968683       38.5328579522
 Pb        22.0051643849       25.0237578144       43.3146570872
 Cl        22.2436229451       22.8711154812        8.5808534423
 Cl        22.0751207608       36.3361132757        9.1493549596
 Pb        22.3959316306       29.0950977239        7.4466120713
 Cl        21.7425512743       15.5612270143       13.2198618205
 Cl        21.9859794190       29.3235032296       13.7696970580
 Pb        22.6048787675       22.4568291909       11.7497242075
 Pb        21.5825589075       35.5336751517       11.6518389554
 Cl        21.4139267888        7.8547126964       18.2308782620
 Cl        22.4256799444       22.6051554123       18.0212277572