    1221
 i =      152, E =     -9655.1699017984
 Pb         5.9170512766       21.7401539929       29.1259895022
  S         6.6586015690       23.9547107869       23.0515035355
  S         7.4315690057       23.2105986073       30.7291086269
  S         6.3087277342       27.3382291495       24.3526932461
  S         7.5959097252       29.2470079007       30.4741429628
 Pb         7.0961936769       26.3705149609       21.9905823539
 Pb         7.3310585496       26.8495422586       29.4553061011
 Pb         7.8408961509       19.4180771377       25.7096918323
 Pb         7.9186902176       25.2443725571       16.2620491630
 Pb         7.3613141876       24.9833610315       25.4266996748
 Pb         7.6272117634       24.0951555247       33.3321557139
 Pb         7.9825737881       33.4282712375       29.3262066441
  S         7.6723851429       21.7446639345       26.9643007416
  S         8.3576487452       27.4706057896       17.5195685475
  S         8.5324359134       27.8001280308       27.1997669235
  S         9.5109210450       31.4776253121       15.1426306666
  S         8.4232388325       31.7395709141       27.3018166432
 Pb         8.1402328003       29.3121642356       24.9434604868
 Pb         8.0907613694       28.8838744230       33.1110954303
 Pb         9.1310783196       22.5853848390       22.7014112801
 Pb         9.3074746920       21.2044684554       31.2158888295
 Br         9.5489924294       19.4962162284       20.2642563841
 Br         6.5899603920       19.3627080248       30.3685466926
 Br         9.6283527045       24.6663127511       20.4048044460
 Br         9.7018275139       24.7657316764       28.3950815752
 Br         8.7206942754       26.2267096643       35.7104301621
 Br         8.8785265373       33.2958442880       19.0119419810
 Br         9.8519000604       32.1999801718       31.2749854700
 Br         9.1781719550       17.7711492045       27.8174547538
  S        10.2843474399       16.1333444321       31.3426213490
 Br         8.1356618817       26.0872896812       13.5078567540
 Br         9.7797387883       27.6975660838       22.9762522132
 Br         9.2182584366       26.1293814905       31.9013478397
 Br         9.6705558439       32.6388117967       23.4765978567
 Br         7.9982640905       31.5594165176       34.8443177796
 Pb        10.4383657683       14.4077777990       28.3726226539
 Pb         8.6268953506       30.3986226048       17.4142227582
 Pb         9.8106011519       29.8395739446       28.6173872246
 Pb         9.7720684407       29.7689166867       36.2688630787
 Pb        10.9446619637       22.5216911909       18.1054832014
 Pb        10.4108563204       22.3178972497       26.6619988274
 Pb         9.6070979451       20.4531404281       35.2195638742
 Pb         9.8097205972       37.7095957886       27.9815737121
  S        10.6737372539       20.1186310259       16.5601426113
  S        10.0507598043       20.2900600817       24.5268169793
  S        11.1270612192       19.3964854335       33.2795245436
  S        10.5767537908       24.5152958438       16.3121143675
  S        10.0889801565       24.2667179647       24.6752276924
  S         9.8003977220       22.6079467498       33.5649163450
  S        10.9956004138       35.3402364661       14.9839779499
  S         9.8499443872       34.9117206981       28.2018209069
  S        11.0492462821       35.6104940266       32.5868541520
  S        10.4244830320       37.8845514206       25.5642043729
  S        11.1340942578       14.4247129983       25.7753350933
  S        11.2163783685       29.6628212007       17.8328273120
  S        11.1562933163       29.7609182541       25.9101952609
  S        10.7317336019       29.2607489903       33.7958238326
 Pb        11.2235780452       18.1300910475       18.2551411706
 Pb        11.6482717004       17.1239900698       25.9714757225
 Pb        11.0502687561       16.7659444589       33.7713554258
 Pb        10.9509041443       26.9434802485       18.2022686020
 Pb        11.1753781277       26.8648823207       26.4864856203
 Pb        11.3884307166       26.6341321024       34.3302457896
 Pb        10.9809901289       33.2830353937       16.6313412848
 Pb        10.8689445901       32.6923812659       26.3075425126
 Pb        11.2711968952       33.4058946987       33.8991001227
 Pb        12.0885751781       19.4506133886       14.3371507470
 Pb        11.8051456049       19.4178483092       22.3261542774
 Pb        11.4252126203       18.1732709312       30.1546041914
 Pb        11.7220726023       18.9835882545       38.8030775524
 Pb        11.0151004369       25.1983256819       13.3724010904
 Pb        12.0805179160       25.4583248990       22.3353165210
 Pb        12.2515050544       24.7517215344       30.1722588646
 Pb        11.8862582391       24.7817903750       38.0611264667
 Pb        10.8937111066       34.0457004135       21.1704292656
 Pb        11.9059363426       34.7428645664       30.0866375033
  S        12.0733806284       22.0156419391       13.5830443401
  S        12.0494738268       22.0826242754       21.9300818399
  S        11.8097585744       22.0105924087       30.0105310118
  S        11.2866308688       21.1563154370       37.2681908034
  S        11.6910383448       36.7895719309       22.0178838925
  S        12.1364749128       37.5641482691       29.7699818270
  S        12.6767548007       12.2565554616       20.4281205909
  S        12.3134431478       12.3290984525       28.7750710996
  S        12.6029094670       16.2408470254       20.6957617113
  S        12.6051201308       16.2829950602       28.4338455137
  S        12.0202683614       27.6898641555       13.0088727227
  S        12.7919152388       27.7409235099       20.8193881073
  S        12.7030060054       27.7264618010       28.7720086308
  S        12.5485465724       27.2282865471       36.8657023792
  S        12.3908904273       31.7747471925       12.5100848471
  S        12.7751150630       31.9699621215       20.8719617827
  S        12.6969241040       31.7355314626       28.6655189251
  S        11.9098234627       31.2153214813       37.0898412546
 Pb        12.6600031498       14.0789492103       22.5056721923
 Pb        12.9140561512       14.1096754868       31.0208633989
 Pb        11.9377374663       30.0386685167       14.7319548369
 Pb        12.6696197435       29.8562891125       22.7962516335
 Pb        12.7209820763       29.8401355284       30.7787161409
 Pb        12.3962332404       29.1678807771       38.9135815586
 Pb        13.3749225005       22.3150525786       15.9844810724
 Pb        13.3827734200       22.1489471405       24.4289208030
 Pb        13.1859356925       21.6079537449       32.5132469542
 Pb        13.4446159801       22.0828876766       40.7962727122
 Pb        12.7869982329       36.7953452033       15.9491657120
 Pb        12.7403296367       37.2188016820       24.4557335365
 Pb        13.2432822534       37.4378049377       32.3301373715
 Br        13.5482655072       19.5297596220       19.3867282095
 Br        13.3883438782       19.6586970579       27.0841369201
 Br        12.9472553606       17.3042895531       36.8239098276
  S        13.3779682897       24.7628425885       11.6015027596
 Br        13.4461344488       24.3960633161       19.3058009090
 Br        13.4619781348       24.3456206600       27.4435284644
 Br        13.0937402686       23.9138153914       35.1465786281
 Br        13.1559618397       35.2490647508       18.6216722453
 Br        13.6975123311       35.0569469584       27.2339223875
 Br        13.6217499366       34.9254517427       35.6223015532
  S        13.6078331674       39.9144871994       19.4733572665
 Br        13.9202003539       40.4568116583       27.4954248490
 Br        13.8268282695       11.6069767084       24.5737047195
  S        14.1269277396       12.0829395315       32.3827241892
 Br        13.2665329670       16.4894613619       16.2033335162
 Br        14.2110683966       16.5119618687       24.5148577013
 Br        13.9047674689       16.3231031695       33.0792204233
 Br        14.0182267718       27.4499891728       16.7096708762
 Br        13.7124909469       27.1985534633       24.5644120138
 Br        13.9401413900       27.3264335302       32.6546112410
 Br        12.6263271530       26.1344127566       40.5715676593
 Br        14.0483113601       32.0189563819       16.5110635838
 Br        14.0531198118       32.1306950234       24.6668818945
 Br        13.7047271839       32.2574677366       32.6331514439
 Pb        13.9210903329       14.3355034246       19.2165963267
 Pb        13.6272144383       13.7894437245       26.8870479962
 Pb        14.4991509743       14.1359841358       36.0660168142
 Pb        13.5826169725       29.6824344421       11.3857606200
 Pb        13.5320631939       29.9813029215       19.0611189219
 Pb        13.6687147322       29.7864227845       27.0145909526
 Pb        13.9532321374       29.9809377695       35.6866717776
 Pb        14.5910190319       22.5244949549       12.4056076883
 Pb        14.6974929117       22.1634912787       20.9385289452
 Pb        14.5316423734       21.6576229458       29.0753696919
 Pb        14.0423475985       21.3444367915       36.8659036844
 Pb        14.0290529128       37.2768653652       20.8789730958
 Pb        14.5839617147       37.6578072141       28.6937644815
 Pb        15.3053457902       38.5059288508       36.8432906764
  S        14.6992623064       20.0962352126       15.0752053713
  S        14.6775072974       20.0757198638       23.1556079748
  S        14.5261127516       19.6146745120       31.0616673206
  S        14.1483734395       19.8738213896       39.3996108849
  S        15.0489059273       24.1551811860       15.0564704397
  S        14.7754727749       24.1035810362       23.0745685558
  S        14.6963983926       23.7455916425       31.1770362322
  S        14.2231085083       23.4811679807       38.5990192038
  S        15.0034583411       35.4634830676       14.8833590661
  S        15.1507634790       35.3897516461       23.0099204628
  S        15.0447016274       35.7002167758       31.1262557981
  S        15.8070836573       36.5957201844       38.6303446140
  S        14.7756767158       39.3059267508       23.0601518821
  S        15.1544730651       39.4817452173       31.0157225266
  S        15.2356425359       14.0753828265       13.8663200545
  S        15.3846018855       14.1998884731       21.8479496745
  S        15.4570378574       14.2571442580       29.7965286805
  S        15.5129980225       14.2160503267       38.4760273482
  S        15.0895366038       29.6547226266       13.7411648427
  S        15.4767766964       29.7684396957       22.2361598656
  S        15.4264584173       29.8439515651       30.2142205531
  S        14.9625905219       29.5414487682       38.2988469098
 Pb        15.2024480120       11.4515302782       21.1961225797
 Pb        14.9495309828       11.5002536607       29.8913144490
 Pb        14.9333542792       16.6321245576       13.7954208305
 Pb        15.2189982217       17.1074804091       21.3461907279
 Pb        15.4503017583       17.0355524567       29.2990828912
 Pb        15.8528598949       16.8879467760       38.2430564976
 Pb        14.6858759170       26.6857987282       13.3121822698
 Pb        15.4215984143       27.1024428188       21.4830828775
 Pb        15.4101063846       27.0824193659       29.4986208551
 Pb        15.3806297071       26.8854695313       37.6010735057
 Pb        14.9134121140       32.4496657031       13.3033030343
 Pb        15.3683109844       32.6459931661       21.6515547058
 Pb        15.2742319467       32.6434356733       29.3708819695
 Pb        15.4639579393       33.6092835120       37.4650368016
 Pb        14.7672345298       41.2919824547       21.3857210145
 Pb        15.9554707216       42.0514477472       28.9633146021
 Pb        16.2775131545       10.0312398134       25.3931287681
 Pb        16.1026420063       19.2779947279       17.3297318053
 Pb        16.0472069934       19.2117241740       25.4072586264
 Pb        16.2003956663       18.9354503373       33.2022015917
 Pb        14.8884791238       24.9821431929        9.3605320953
 Pb        15.9302219684       25.1523139987       17.4451299558
 Pb        16.1834599863       24.9163394484       25.4144065829
 Pb        15.8297164659       24.6029302605       33.5830545043
 Pb        16.0798886028       25.0710912541       40.8958263806
 Pb        15.8713929255       34.3968657579       17.1818544162
 Pb        16.1083240039       34.5892671184       25.3928944489
 Pb        16.2238936722       34.5920849779       33.3621936929
 Pb        15.6276310134       40.1244570041       17.7985799810
 Pb        16.2471664704       40.3439933816       25.3226735378
 Pb        16.1301593328       40.1400843284       33.2784200336
  S        15.2286876331       22.3381231107        9.6390587612
  S        16.1588676926       22.0580152959       17.9497736011
  S        16.1960009958       22.0657599587       25.9828100184
  S        15.9962428989       21.7614918950       33.9409502810
  S        15.8773373561       22.5245976010       41.8669348097
  S        16.1772856697       37.5412540833       17.7076033565
  S        16.3392722428       37.5238263706       25.9037692798
  S        16.0466943668       37.5170084888       34.3696630521
  S        16.5474637379       12.2888611851       18.8701770388
  S        16.8965764606       12.0310007458       27.0790269063
  S        16.3526006346       12.2186057245       35.2733923633
  S        16.6257917961       16.3313876269       18.9720953530
  S        16.9372459498       16.3007257380       27.0555363430
  S        16.6581466919       16.1311029574       35.6934153880
  S        16.0702548098       27.3866386690       10.7591718333
  S        16.7760695986       27.7918998526       19.1158437271
  S        16.7613748707       27.7811284562       27.1807338976
  S        16.6711274459       27.8609139860       35.4110861750
  S        16.8471764974       26.5969189982       43.0799340282
  S        16.2771909328       31.5507796524       10.9047381808
  S        16.7008599244       31.7576371214       19.1162943985
  S        16.8191619307       31.8760850609       27.1874989098
  S        16.1108984618       31.8139161450       35.4690910426
  S        16.7609981192       43.0686149687       26.6927953409
 Pb        16.7039016123       14.2578400111       16.7149024118
 Pb        16.8840563503       14.3069276643       24.9217041099
 Pb        16.3352436374       13.7356557330       32.8742355204
 Pb        16.6579181719       29.7287688966       16.9389106761
 Pb        16.7386428598       29.8581593146       24.9158612793
 Pb        16.6715963818       29.7979065657       32.9538679115
 Pb        16.5098741610       28.9225973773       41.7211287091
 Pb        17.3101777285       22.2752564028       15.2948154231
 Pb        17.5295709360       22.0297455734       23.3729964984
 Pb        17.4502197947       22.0177593734       31.4176950955
 Pb        17.4734448318       21.8985817092       39.1719243926
 Pb        17.1142191735       37.2378381971       15.0369292749
 Pb        17.1776760499       37.2869905721       23.2031928126
 Pb        17.4369764769       37.3829952112       30.9998586534
 Pb        17.8054768125       37.5521346831       39.9484827745
  S        17.7299379034        9.1281477563       20.4565622068
 Br        15.8951233956        8.3056631191       27.9552089498
 Br        17.8544249042       19.1957051869       11.5256242047
 Br        17.6615759315       19.6598181440       20.6250568777
 Br        17.6434000708       19.6403567873       28.6076549733
 Br        17.4017464434       19.6938484382       36.9133712932
 Br        17.6906063674       24.5906454673       12.6063908868
 Br        17.7788640637       24.4697155871       20.5914877246
 Br        17.7632659164       24.4643160796       28.6133861123
 Br        17.3066236990       24.2444205674       36.6340249181
 Br        17.6078360954       35.2996385621       12.2213947176
 Br        17.8328161524       35.1218457621       20.2822387812
 Br        17.8796918990       35.1938624359       28.6986018985
 Br        18.0052265973       34.7228200358       36.4424766129
 Br        17.5667127950       40.5604971815       20.0777060281
 Br        17.9436102865       39.9283382173       28.5977052738
  S        17.6341290117       40.0285478423       36.5589620002
 Br        18.0957995147       11.8765582611       15.1523244350
 Br        17.9575930199       11.7317516591       23.3885196869
 Br        18.0307506227       11.8310283471       31.3674674424
 Br        17.3607866697       17.0688949405       15.2663423534
 Br        18.1087558554       16.5576912585       23.2280705148
 Br        17.7645159559       16.7413254562       31.3861372713
 Br        18.0514221767       16.2828346498       40.4356404706
 Br        17.9592451997       27.3583115973       15.3280608271
 Br        18.0930581447       27.3719685086       23.5242728128
 Br        18.0683276247       27.5491096236       31.5605810677
 Br        18.0449791402       27.6656222915       39.4558375067
 Br        17.8456248189       32.2602632112       15.3152187658
 Br        18.1632982626       32.1440806257       23.4243284320
 Br        17.8470917499       32.3286645402       31.6503369929
 Br        17.6810353533       32.1889142140       39.6223748986
 Br        18.4636188193       43.1889043552       23.2109264261
 Br        17.6929070040       43.2547758212       32.0905277869
 Pb        17.3320227307       13.0926714334       12.6109818206
 Pb        17.9613174883       14.2961407947       20.2288746149
 Pb        18.1409208860       14.2420803641       28.4778908353
 Pb        17.9084526290       13.8511293298       36.7416281077
 Pb        17.3809387591       29.4475314658       12.1961713154
 Pb        18.0379937798       29.8219237670       20.5051554427
 Pb        18.0833040466       29.8445846130       28.5266641469
 Pb        17.8256645900       30.0143718066       36.6962058460
 Pb        18.1030005391        6.6814861649       27.1927220713
 Pb        17.8569997589       22.3706583558       10.2233575673
 Pb        18.7470613486       22.0486607430       18.8181193258
 Pb        18.8106841256       22.0396436226       26.9564549665
 Pb        18.6278592655       21.9237857148       35.0213810396
 Pb        18.5929996986       22.3265066209       42.8136147757
 Pb        19.3398394241       37.0008232966       10.8706849408
 Pb        18.7661365410       37.4435681041       18.5609847339
 Pb        18.9589763567       37.5346766392       26.6219701288
 Pb        18.7337232180       37.6898198689       35.0446816049
  S        18.9307137560        8.5028994590       25.3275208416
  S        19.0909054263        8.4608409849       33.2035119588
  S        19.3324275602       21.0688779870        8.1327517711
  S        18.8823090088       20.0146151506       16.6605592497
  S        18.8724210199       19.9770205098       24.7374062247
  S        18.8043117624       19.9458379042       32.8016311788
  S        19.0125613189       20.2710322007       40.8726518856
  S        18.0663796738       24.5494689790        8.4519615591
  S        18.8683048543       24.0994827330       16.7222378280
  S        18.8836818857       24.0575659828       24.7787985296
  S        18.6529164348       24.0340814341       32.8568206191
  S        18.7758450141       24.1711915602       40.7310785697
  S        18.8197621719       35.6154907425       16.4439973860
  S        18.9866828543       35.4507170035       24.6827411714
  S        18.8637213305       35.6330950904       32.7807002225
  S        19.0739937475       35.5200289193       41.1545048751
  S        19.1039684538       39.7104285309       16.3825552862
  S        19.0290196678       39.7246132392       24.7609793079
  S        18.9394430130       39.6689582206       32.8636250851
  S        19.3391876460       14.4210967068       17.6372923753
  S        19.5522332581       14.2818641497       25.8506413876
  S        19.4073398169       14.2763288753       34.0444991560
  S        19.0295804175       29.5116692322        9.5320183002
  S        19.4373957571       29.7764329403       17.8832660217
  S        19.5168177179       29.7964645458       26.0497064658
  S        19.2663251279       29.9531559629       34.2687607559
  S        18.7249509191       29.7668952251       42.8126684775
  S        20.4338327630       45.3887838937       25.7284053837
 Pb        18.8466195734       10.7510242438       18.7219083192
 Pb        19.6241787689       11.4350397155       26.3660826562
 Pb        19.0746215335       10.8002617170       34.2359061227
 Pb        19.6141264837       18.8004069431        9.3652659744
 Pb        19.3953596236       17.1791125202       18.1761155924
 Pb        19.5645321612       17.1463848986       26.3426003382
 Pb        19.2806580080       16.8883909962       34.6656595424
 Pb        19.4349760862       18.0026507014       42.2415987602
 Pb        18.6474944897       26.5800340922       10.3108769932
 Pb        19.3823469932       26.8923826436       18.3615368454
 Pb        19.4530606717       26.9247622088       26.4985590496
 Pb        19.3940242216       27.1220385655       34.6107130073
 Pb        19.4221697039       26.5574690347       42.3395636363
 Pb        18.7686545384       32.1231058615       10.0756767744
 Pb        19.2831547126       32.6029319974       18.3390545109
 Pb        19.5035140387       32.7027545008       26.4090028627
 Pb        19.7782732924       32.7836077557       34.5455872539
 Pb        18.7871775973       32.3035120443       42.2718134258
 Pb        19.9003761986       41.8372648315       18.1260160575
 Pb        19.3748895557       42.7216272793       26.1592142770
 Pb        19.0022805989       41.9056015692       34.3267340085
 Pb        19.6481085687        9.2794834235       22.1550045776
 Pb        20.0723775737        9.1848521310       30.9255663665
 Pb        20.1682992338       19.2218828717       14.3231863862
 Pb        20.1691408550       19.2090263415       22.3800206325
 Pb        20.1963935025       19.1485324728       30.5326866037
 Pb        20.6599954973       19.4774568668       38.5492229067
 Pb        20.0687726752       25.1712013524       14.3921867853
 Pb        20.2182520861       24.9704168135       22.4459687028
 Pb        20.1646580142       24.8541495827       30.6044498974
 Pb        20.1764344626       24.8925963789       38.2102134051
 Pb        20.1887272809       34.2459644358       14.4124513606
 Pb        20.1937471264       34.6263224682       22.3046246768
 Pb        20.2661155711       34.6566375462       30.5103301684
 Pb        20.1764499614       34.5061819562       38.8404623298
 Pb        20.3468560062       40.5037883674       14.2140965290
 Pb        20.3281195568       40.2932171123       22.4889556162
 Pb        20.5654525639       40.3747685464       30.3527417113
 Pb        19.6334080194       40.0761325888       38.4241133407
  S        20.1339116956        6.4005039400       22.3546267794
  S        19.7125408073        6.8053611613       29.3566898377
  S        20.1501961284       21.9797839084       13.7605606698
  S        20.3555961756       22.0395944923       21.9223799561
  S        20.3276598907       22.0375354518       30.0553855294
  S        20.0663235708       22.0993497596       37.8081394663
  S        20.3175717361       37.9603609201       13.0829095490
  S        20.3667031234       37.5094842085       21.8162411231
  S        20.4841606041       37.5671721398       30.0274344091
  S        19.9368913158       37.4758863960       37.9514633628
  S        20.7985789810       11.8863917464       12.3978587073
  S        20.6702678021       12.1743979206       20.5544633755
  S        20.7725238924       12.2698521304       28.8252992369
  S        20.8855553140       12.1634819714       36.9644128985
  S        19.0866277723       15.1750034463       12.7866711913
  S        20.8385036473       16.2121859362       20.5274656921
  S        20.7680172827       16.3065930510       28.8538946944
  S        20.9095902077       16.1568505604       36.9430777221
  S        20.8306150142       27.5235857376       12.5213908345
  S        20.8661320875       27.7280760892       20.7220482598
  S        20.8925096994       27.7811609651       28.8855888190
  S        20.9220576532       27.7733854583       37.0182396727
  S        20.6149954425       31.5646939188       12.3327263229
  S        20.8526433111       31.8004614015       20.6624363728
  S        20.8597362529       31.8680214415       28.8620052311
  S        20.9413390994       31.8678687874       37.0054094113
  S        21.1923679183       43.5104526964       20.2012983832
  S        21.1354815833       43.3456486931       29.0276203411
 Pb        20.6209121973       13.8745582307       14.6836129773
 Pb        20.8688318756       14.3604190645       22.6920420826
 Pb        20.7973282281       14.3745301894       31.0724126210
 Pb        20.9786374393       14.1964398040       38.8821395252
 Pb        20.7245328207       29.5886408231       14.4182902556
 Pb        20.9227676324       29.7445734137       22.8262670359
 Pb        20.9376166937       29.7650875505       30.9640455687
 Pb        20.9094744106       29.8258308942       38.9716052136
 Pb        20.8223306252       44.9134986717       22.9597099615
 Pb        20.7873054058       44.7989416690       31.2556337265
 Pb        21.1270132574        6.8150293944       24.8029263944
 Pb        20.4293329886       23.5506077835        7.8645458737
 Pb        21.4454919933       22.1280835759       16.2603253307
 Pb        21.6773731543       22.0203086075       24.4708597238
 Pb        21.6630958970       22.0191650481       32.6901671627
 Pb        21.7717436842       22.4162592755       40.8835712222
 Pb        21.7351730789       37.5564483318       16.4532600587
 Pb        21.6908235514       37.3736161458       24.3695354694
 Pb        21.7497279184       37.5324788839       32.5400578522
 Pb        21.3477855726       37.2721366713       41.3254841646
 Br        21.8736907079        8.7237844387       19.5371113544
 Br        22.1151638018        9.1505260084       27.2615867372
 Br        22.3573295397        8.8900284436       35.7334869579
 Br        21.9674702587       19.0979219498       11.0465569303
 Br        21.9332046232       19.4710842000       19.3580130406
 Br        21.8364770897       19.5868513140       27.4538294914
 Br        21.7902991547       19.6065715472       35.5670224951
 Br        21.3008293314       20.3749652928       43.8534762410
 Br        21.4775500090       24.1347619327       10.5604244463
 Br        21.9027147682       24.4858039899       19.2885185827
 Br        21.8646174295       24.4788065569       27.4548550792
 Br        21.6008115303       24.5359550012       35.2986847671
 Br        20.4053649906       24.5329561349       44.2012155150
 Br        21.3530993905       34.9698949037       11.1704715396
 Br        21.6768089317       35.2024452913       19.0321889829
 Br        21.9606299721       35.1059816553       27.4129526919
 Br        21.8779960716       35.1189911226       35.5604092227
 Br        21.8872048085       39.9976708429       19.1342056299
 Br        21.8932187165       39.9916673467       27.4568097500
 Br        21.5515396851       40.8003344900       36.1425764073
 Br        22.8781500156       11.2899307946       15.7161170346
 Br        22.2268399601       11.6867571727       24.3822981099
 Br        21.8406285627       11.6947093957       32.7050823656
 Br        21.8308920131       16.6751231237       16.1156221417
 Br        22.1703644325       16.6102301993       24.3507404106
 Br        21.9502776336       16.7379360470       32.6415499016
 Br        21.8175385216       17.1035473362       40.9428796201
 Br        21.8368520796       27.3725455017        7.8545647541
 Br        21.9851060974       27.2662575769       16.3768335141
 Br        22.0689886057       27.3585919549       24.5864233477
 Br        22.0398603053       27.5202514505       32.8288552920
 Br        22.6859210100       28.9033171936       42.3773764290
 Br        22.0427244378       31.8354608533        8.1005703140
 Br        21.7994149288       32.3070687299       16.1295119297
 Br        22.1144750748       32.1814216974       24.5803501337
 Br        22.0844644593       32.2806794758       32.7446511228
 Br        21.4054387217       32.4703089632       40.9483310350
 Br        21.7604962654       43.0905362613       16.2031530335
 Br        22.2009067611       42.6373652722       24.0597725131
 Br        21.5630639840       42.6848704611       33.0281871900
 Pb        20.9926829935       14.2291741872       11.1186695199
 Pb        21.9223632227       14.1653142578       19.0481006539
 Pb        22.1480968995       14.2695917082       27.5102658466
 Pb        21.8460231860       14.0682688904       35.2528413547
 Pb        21.4453961134       29.4859577133       10.5624031243
 Pb        22.0386233416       29.7367679370       19.1936529045
 Pb        22.0913536781       29.8122143960       27.3716410734
 Pb        22.3564010634       29.6947894081       35.6343546998
 Pb        23.8954635356       29.9629882812       44.7327416170
 Pb        22.9257844159       45.1694770924       19.0727678403
 Pb        22.1782275343       45.5421975148       27.6524309317
 Pb        22.4938018575        6.5055858895       21.2500888116
 Pb        22.3162235889        6.7668589287       28.9412277846
 Pb        22.6654894362       22.0679822434       12.7689542233
 Pb        22.9529257719       22.0904105242       20.9175526961
 Pb        22.9491734854       22.0856371480       29.1268767212