    1221
 i =      191, E =    -10046.1391954829
 Pb         5.9316455195       23.1420818518       28.6884630422
  S         6.6954241189       22.0090889577       24.0260086279
  S         7.0034985347       23.3465437748       31.0462648443
  S         7.3548401824       29.0571260571       22.0294862017
  S         7.3642993060       29.1250321871       30.0583199768
 Pb         8.0457764568       26.5786491320       21.7166098287
 Pb         7.6474841686       26.0245018970       29.0772554721
 Pb         7.5296544139       19.8916154028       25.5297105153
 Pb         8.5962555302       25.1941529620       17.4703452273
 Pb         7.6442293351       23.9445517514       25.6466482702
 Pb         8.2713151073       25.4298974908       32.2305222511
 Pb         7.6505599467       33.9337923203       27.5444213033
  S         8.0745669306       21.7617797204       27.5036744258
  S         9.2516914469       27.0542641702       19.3547348011
  S         8.7173051054       27.4721585750       26.9342249683
  S         8.2257238021       31.5533593311       18.6987175591
  S         8.7352052226       31.5545160484       26.8281620340
 Pb         8.8027454138       29.5879864887       24.3807042220
 Pb         8.5460814307       29.4579605342       32.2676914907
 Pb         9.1930611721       21.9808792782       22.7941386524
 Pb         9.5369147477       21.9948763292       30.5177684580
 Cl         9.8759243371       18.7189321781       19.8117878897
 Cl         9.1819077810       17.5644093663       27.6490972789
 Cl         8.1779881555       23.2553859244       19.8768538220
 Cl         9.8877076977       24.4354231186       28.4452041627
 Cl         9.7905061788       26.3250459653       35.4869885463
 Cl        10.2847230559       35.9607065844       18.1279258115
 Cl         8.2606606797       34.4027508319       30.1585225447
 Cl        10.4298703420       16.7053048739       23.0914426285
  S        10.1472376899       16.4743055215       31.3659032264
 Cl         9.8567966400       26.9813236661       15.6947813906
 Cl        10.3745481350       27.2824517606       23.2713152324
 Cl        10.4590376526       27.4641632962       31.3061157306
 Cl        10.1921926199       31.7003421654       23.1755706146
 Cl        10.3017350678       31.4414089215       31.5230566252
 Pb        10.4393342872       14.6664618983       28.3258038011
 Pb         9.4710929018       29.9155617055       20.2332015697
 Pb         9.6147211274       29.5543878775       28.4957101337
 Pb        10.7868013407       29.1933305217       36.5994276560
 Pb        10.4173651543       21.8881549037       18.9356161946
 Pb        10.8016840906       22.0627425129       26.5375755029
 Pb         9.8858437411       21.9897093411       34.4628276622
 Pb         9.9411535612       37.5437301070       27.6859119212
  S        10.9981541974       19.9842343928       16.2592814457
  S        10.1231889478       20.0846908039       24.6550482784
  S        10.6609094415       20.1789546191       32.6729169122
  S        11.0178434071       24.0549160492       17.5229920386
  S        10.1712526045       23.9268928843       24.5647550988
  S        10.5040463827       23.8441528093       32.4180362255
  S        11.0598027589       33.1416802094       15.4617057332
  S         9.9743082957       34.9693693723       26.9073355544
  S        11.3137687340       34.8789240845       32.5852994537
  S        11.9439425295       38.2973436830       26.2203466188
  S        11.2462042699       14.4978068310       25.8007495821
  S        11.6405004517       29.9745710408       17.8082206601
  S        11.6043413461       29.5195436039       25.6911554038
  S        11.6968185264       29.3572874425       34.1579562001
 Pb        11.7624770598       18.0080677520       17.7929183791
 Pb        11.5926847229       17.2205809388       25.7133003776
 Pb        11.0141962946       17.6055750080       33.5585553217
 Pb        11.8106614260       27.2416076497       18.0672185698
 Pb        11.2912445229       26.8134160170       26.1748138454
 Pb        11.9341074516       26.7346671409       33.6514784560
 Pb        10.5665423502       32.5568045877       18.1161659193
 Pb        11.2695252454       32.3959197802       26.0584173876
 Pb        11.9583665054       32.6668481903       33.8161703859
 Pb        12.4209357252       19.6049603459       14.0177975242
 Pb        11.8073075546       18.7677117188       21.8673699603
 Pb        10.9610229311       18.3490417553       29.7021534632
 Pb        11.9321716506       19.5871316233       38.0507032512
 Pb        11.8844483031       25.8071980115       13.6998922390
 Pb        12.2749311221       25.1563187519       21.7762678665
 Pb        12.4531725321       24.8266621729       29.9192366185
 Pb        11.8728111342       24.8782926978       37.5710400490
 Pb        11.6064666827       35.0491337395       20.3803410247
 Pb        11.0892599457       34.3218333841       29.8659351613
  S        12.0930798268       22.1964117513       13.4921732552
  S        11.9836226553       22.3143928111       21.4082679070
  S        12.2479855623       22.0482209257       29.5797852354
  S        11.7812370764       21.7941653636       36.4778429968
  S        12.0575492158       37.5584155886       21.2833746111
  S        11.7266108077       37.0494054691       29.8029276165
  S        12.9015153448       12.6063461407       20.4359947992
  S        12.4206508124       12.6831111031       28.9461483054
  S        13.1189897396       16.6855606840       20.6473842116
  S        12.6082932720       16.5362261632       28.4726184992
  S        12.6607250624       28.2666948213       13.0012208303
  S        13.0607664553       27.9201806359       20.6561800361
  S        13.1489727061       27.5982314767       28.5681560783
  S        12.8116555474       27.5110835877       37.5021030534
  S        13.1819906529       32.3252647636       12.4273424099
  S        13.1158240585       32.1499076851       20.8083492649
  S        12.8785722412       31.6533463212       28.5069491075
  S        12.6794793359       31.2593172809       37.1468458544
 Pb        12.8816570064       14.5257835970       22.5290399866
 Pb        12.9255327710       14.7201713735       31.0169894751
 Pb        12.7325143754       30.7717449633       14.7262033658
 Pb        12.9351331664       30.0436991217       22.6977734383
 Pb        13.0100864113       29.6975464332       30.5102807969
 Pb        13.2635953382       29.3800874500       39.4612267246
 Pb        13.0106482387       22.4477242640       16.0986818708
 Pb        13.3427372373       22.0771468641       24.1527538175
 Pb        13.3950223087       21.8199841842       32.1353820318
 Pb        13.6347804269       22.2049009166       40.7977699578
 Pb        12.1440023481       35.4212921218       15.8901139297
 Pb        13.3460670083       37.5473740685       23.7278482342
 Pb        13.1698661405       36.8622334746       32.1512121399
 Cl        13.5149083141       19.8484362869       19.0584983352
 Cl        13.7630017750       19.6579900834       27.1221134315
 Cl        13.2147597185       17.7945911023       36.4567139955
  S        13.6858161187       25.1927236308       11.5658266702
 Cl        14.0092941655       24.8180569391       19.4497495696
 Cl        13.5549885819       24.3209672758       27.1359839308
 Cl        13.5669654592       24.7189262884       35.3613154703
 Cl        13.7295288162       35.2534018005       18.5702340041
 Cl        13.9364881155       34.7736526539       27.2878976181
 Cl        13.9136056972       34.4255698032       35.5361144262
  S        14.1220470298       40.5060592020       19.1707669066
 Cl        14.2392242439       40.7645416387       27.5670816404
 Cl        14.2198194671       12.2570815437       24.4994319994
  S        14.1939312696       12.7619653888       32.5318398875
 Cl        14.0211929767       16.8770955926       16.0200584663
 Cl        14.2181696944       16.6369079307       24.5320259043
 Cl        13.6757750589       17.1061737188       32.8223335838
 Cl        14.5677718059       27.9787153619       16.5933622329
 Cl        14.5325622100       27.5203438033       24.4024420661
 Cl        14.5723887533       27.5652540297       32.4762727541
 Cl        14.1482214048       27.3059647206       41.2214494919
 Cl        14.6555637813       32.0693398433       16.6025660520
 Cl        14.4348534741       31.9790243864       24.4873355774
 Cl        14.2256417086       31.9573981777       32.3830008422
 Pb        14.2922400711       14.4910817232       19.1999251457
 Pb        13.7161960466       14.1140601287       26.9878321505
 Pb        14.6005535844       14.6057349927       35.7591480676
 Pb        14.2621495092       30.1326954282       11.3239266618
 Pb        14.0083762494       30.1967308978       19.0518751570
 Pb        14.0541352784       29.6607279943       26.8855575992
 Pb        14.3409646685       29.5898460969       35.6573833095
 Pb        14.6513361503       22.9371374194       12.6740213665
 Pb        14.6712985638       22.1634395940       20.6808669651
 Pb        14.8725368263       21.9306556824       28.5528705099
 Pb        14.6041009834       22.1842463453       36.7717226469
 Pb        14.5579933873       37.9370609598       20.2716413884
 Pb        13.8232088335       37.6602547552       28.0023555822
 Pb        14.6150579456       36.9160431803       36.5240651196
  S        15.0313479373       20.2487290619       14.8401335722
  S        14.6434044909       20.0962938519       22.8569348016
  S        15.0623909522       20.0374611243       30.8506436106
  S        14.3021566412       20.2621032195       39.0272826128
  S        14.2645458524       24.7668890387       15.1183763919
  S        14.6157960508       24.1795373079       22.9857786185
  S        14.8958996656       24.0290466059       31.0199460113
  S        14.1098092801       24.0426911683       38.8535156369
  S        15.1031311046       35.3937205181       14.9992300427
  S        15.0910205939       35.5188147116       22.8205322134
  S        15.1497474362       35.3347628403       31.0276166092
  S        15.9801889184       35.6878010480       38.3719400266
  S        15.2259027961       39.5544086483       22.7028374084
  S        15.1000259203       39.1903093738       30.8678061299
  S        15.6002452637       14.5659902275       13.7384304762
  S        15.6459478692       14.5061669839       21.7811457458
  S        15.5445106661       14.6463163058       29.7536803101
  S        15.5583224573       14.7863446297       38.1874636486
  S        15.6817000991       30.0498887733       13.7669275240
  S        15.8676368432       29.8496269430       21.9902498600
  S        15.7664352928       29.8300922637       29.8928243577
  S        15.7130057954       29.6236062023       38.4450489974
 Pb        15.4243112393       11.7258187652       21.2248630305
 Pb        14.9267849690       11.9405748704       30.1041989453
 Pb        15.5536207622       17.2392409783       13.7025872593
 Pb        15.7296712903       17.3833063257       21.3883204337
 Pb        15.4431950798       17.5777403798       29.1289059979
 Pb        15.9214586973       17.4693583946       37.8385351828
 Pb        15.2258374621       27.0733126748       13.2175816794
 Pb        15.6177182700       27.1337259946       21.3468171411
 Pb        15.8064958348       27.0401413138       29.4308169898
 Pb        15.9547193439       26.8757115989       37.7433520058
 Pb        15.7535084242       32.8453330285       13.2004788608
 Pb        15.6402943604       32.7355382634       21.5809603200
 Pb        15.3779296608       32.8550140617       29.0909592219
 Pb        15.3084387305       32.5202578363       37.5782813688
 Pb        15.3860272991       41.6691312872       21.1540081957
 Pb        16.1628119294       41.5839028478       29.2445518378
 Pb        16.3125546041       10.4422976846       25.3064874910
 Pb        16.0323266585       19.4681069378       17.2515039819
 Pb        16.0414153785       19.3068141512       25.1869138323
 Pb        16.2999930150       19.0896319587       33.1280491710
 Pb        15.3070669787       25.0741160782        9.3946457818
 Pb        15.9153468883       25.3868865599       17.2623052449
 Pb        15.9990138440       25.1471164008       25.4491392295
 Pb        16.1061851228       24.8862304252       33.4184150489
 Pb        16.3862085826       25.1810289854       40.9565862090
 Pb        16.2429241420       34.3322380585       17.1622102982
 Pb        16.0773444823       34.6475253591       25.2471611479
 Pb        16.4397741098       34.3776443418       33.2660080299
 Pb        16.2601126985       40.5026842814       17.4846728831
 Pb        16.4496160635       40.5127736402       25.4214372477
 Pb        16.0054068801       39.9286707139       33.2329963647
  S        15.4397939612       22.4808055417        9.8851903337
  S        16.0483635321       22.3297697574       17.7840704829
  S        16.0464681953       22.1087384107       25.6843663989
  S        16.0328626784       22.0364403973       33.8859176438
  S        16.0975221476       22.5546616153       41.7977367641
  S        16.3129326690       37.8809973486       17.6028602625
  S        16.2460348847       37.5072669329       25.7568465588
  S        16.1430119290       37.1219741054       34.2513761486
  S        16.6328601158       12.5546481272       18.7730354615
  S        17.0482161408       12.3853920224       27.0130631875
  S        16.5315818212       12.7062047692       35.1553102410
  S        16.8959528045       16.6534445525       18.9337437273
  S        17.0700910818       16.5618112472       26.9406506721
  S        16.7969214724       16.5981013915       35.3382628959
  S        16.5281761393       27.7172013426       10.6799316665
  S        17.1414194928       27.8389124929       18.9720173901
  S        17.1288815705       27.6951031001       27.0113512888
  S        17.0840314350       27.6578501583       35.4007600729
  S        17.4424531173       26.6168734103       43.0596400285
  S        16.9404980741       31.8195662702       10.7782483017
  S        17.1310599963       31.8616178648       19.0997175368
  S        17.1016899612       31.9078962980       26.9147465096
  S        16.4156818476       31.6053846283       35.3009522283
  S        17.2675392590       42.7466238627       26.9233542531
 Pb        16.8745133066       14.5452576924       16.4674421742
 Pb        16.9934099669       14.5079265486       24.8744159371
 Pb        16.5445651538       14.2871497987       32.7471118538
 Pb        16.9346498635       29.8460232407       16.7727675207
 Pb        16.9683811500       29.8028023398       24.6355697488
 Pb        16.8335726478       29.8782593354       32.4949326707
 Pb        16.9559564388       28.8864787089       41.6391416566
 Pb        17.3021831198       22.3028627596       15.2256828526
 Pb        17.4276110541       22.2373846220       23.1595066381
 Pb        17.3990922484       22.1323945220       31.3075964040
 Pb        17.6375290940       22.0065630910       39.1929343896
 Pb        17.0234493014       37.2864882495       14.9189958978
 Pb        17.3104310681       37.4096532301       23.1274699486
 Pb        17.1314521678       37.2987624905       30.7436180933
 Pb        17.6601952989       37.2585214115       39.5937514026
  S        17.6626703779        9.4450252187       20.4933832236
 Cl        16.0020513077        8.8007246875       27.7473713322
 Cl        17.9075177492       19.3481270802       11.8116058495
 Cl        17.5585413292       20.0125459365       20.4473377975
 Cl        17.6126676172       19.8746206333       28.2669263915
 Cl        17.5354009577       20.0195647090       36.6830071611
 Cl        17.7555139091       24.8853235036       12.6130072531
 Cl        17.7021607540       24.5386233005       20.5665190467
 Cl        17.4702443205       24.2738822306       28.3333843894
 Cl        17.2338905989       24.1263199699       36.7397583665
 Cl        17.6423897880       35.5766755707       12.3287526467
 Cl        17.8148279453       35.3930619378       20.0723661037
 Cl        17.8331606508       35.1799084402       28.4543627340
 Cl        18.4723690023       34.5724424486       36.0975425382
 Cl        17.8757733301       40.8274844826       19.8342742288
 Cl        17.8767015739       39.5090454603       28.5385033581
  S        17.8347734399       40.1065390254       36.0862824940
 Cl        18.2750877564       12.4122028278       15.0469807325
 Cl        18.0010589315       11.9968176608       23.4355975319
 Cl        18.1067245742       12.3691289551       31.3918978277
 Cl        17.7432351829       17.2363720044       15.3493111033
 Cl        18.4060894083       16.6804416466       23.1775097165
 Cl        17.6291534629       17.1934298549       31.1401117277
 Cl        18.2221945551       16.8007127636       39.7978532038
 Cl        18.4942920013       27.6817955317       15.2623957628
 Cl        18.5340091970       27.6150696041       23.2621424426
 Cl        18.4086199465       27.7106841609       31.3937869504
 Cl        18.4292534167       27.5382527367       39.4274251849
 Cl        18.1843264876       32.4348445482       15.4847390684
 Cl        18.5574425159       31.9998768398       23.2921308160
 Cl        18.0727046472       32.1918346151       31.4211740030
 Cl        18.2300501274       32.1626708377       39.2501258532
 Cl        18.6611105421       43.0711138670       23.1701113256
 Cl        16.9447697572       42.7135159012       32.5559170215
 Pb        17.5851773906       13.3915825794       12.5192472132
 Pb        18.1655641886       14.4958855168       20.0966029432
 Pb        18.0696988343       14.5746719587       28.5513828705
 Pb        17.9936440838       14.3842246488       36.6293836981
 Pb        17.9701052359       29.7059254678       12.0817773929
 Pb        18.3082632279       29.8427023960       20.4739291117
 Pb        18.3402368731       29.9278660554       28.3014312169
 Pb        18.2812861691       29.9370043676       36.4572869023
 Pb        17.9629843264        7.0915674686       27.0640735971
 Pb        18.0240313067       22.4771088904       10.5775059963
 Pb        18.6093040078       22.3909082920       18.7713471537
 Pb        18.7229344887       22.2000352954       26.8048489310
 Pb        18.6669240364       22.0972532032       34.9685335175
 Pb        18.9453234547       22.4393510188       42.7735000709
 Pb        19.2595673391       37.1447829902       10.9712953482
 Pb        18.8829538900       37.4726034002       18.5411946999
 Pb        18.8566507662       37.3680585640       26.5962488891
 Pb        18.7548488303       37.6403981414       34.9322492138
  S        18.9285663755        8.8730140614       25.2163267592
  S        19.0594765921        8.9954522394       33.0796260932
  S        19.4872481637       21.0133724745        8.5778476165
  S        18.8102386941       20.3452574823       16.5596066908
  S        18.7901409099       20.1446759488       24.4776326615
  S        18.8949574140       20.1108484739       32.7167838590
  S        19.2733796333       20.3991559517       40.7776966084
  S        18.4068828277       24.5453181648        8.6801245652
  S        18.7808796453       24.3853667133       16.6433804397
  S        18.7572955759       24.2528304353       24.5722383481
  S        18.7761236347       24.2699900023       32.6820592754
  S        19.0562071101       24.1332094848       40.5855901770
  S        19.0145877440       35.8795701883       16.2278941912
  S        18.9510975581       35.3494461593       24.5203103443
  S        19.1279018092       35.3759388088       32.5605752957
  S        19.2046773465       35.4304863582       40.7977455803
  S        19.3728550122       40.0262285603       16.3867390539
  S        19.0506513083       39.6007571481       24.6565762816
  S        18.7917147522       39.5041192281       32.5971861554
  S        19.5328727448       14.6850114166       17.5353764832
  S        19.7388549720       14.5421451055       25.6593140184
  S        19.5783686254       14.7194278874       33.8475802934
  S        19.6423444754       29.5722649185        9.5740400295
  S        19.8926711456       29.8921213014       17.7115254377
  S        19.8448748316       29.7888751665       25.8055926848
  S        19.6431788049       29.9025438596       34.0191971176
  S        19.3178476659       29.7759995056       42.5120974980
  S        20.4729428121       45.1771316826       25.7405675076
 Pb        18.9149769536       10.9165941814       18.7175527187
 Pb        19.7390883565       11.7166073600       26.2797137510
 Pb        19.1603672813       11.3501966576       34.0955165814
 Pb        19.6100624829       18.7378327790        9.8410416147
 Pb        19.5146730568       17.3782332501       18.1061105748
 Pb        19.6455434421       17.3678860787       26.1877120972
 Pb        19.5628526380       17.3454848462       34.4655895457
 Pb        19.4466406649       17.9810433981       41.8515611419
 Pb        19.0394039383       26.6903209748       10.3874883641
 Pb        19.6661495642       27.0107449311       18.0957342428
 Pb        19.7256242660       26.9777365843       26.1625874727
 Pb        19.6633744764       27.0829051818       34.2104406507
 Pb        19.9080427371       26.5594045574       42.0589364374
 Pb        19.5334518560       32.2297212935        9.9134839312
 Pb        19.6743194093       32.6175183894       18.2516884149
 Pb        19.6593420152       32.7026021504       26.0089320737
 Pb        20.0860356577       33.1993889966       34.1864359636
 Pb        19.1261849893       32.2800053074       41.8943115844
 Pb        20.3252905660       42.0291067150       18.1854756519
 Pb        19.7874951535       42.4331825445       26.2088390266
 Pb        19.0319545047       41.7097954499       34.1596567665
 Pb        19.5929887552        9.5913596315       22.2134395548
 Pb        19.9007364204        9.6827537179       30.7380858211
 Pb        20.1436501519       19.3513911189       14.2847970579
 Pb        19.9587830529       19.4012362682       22.1038156443
 Pb        20.0624292208       19.3457503167       30.2422004393
 Pb        20.6668113315       19.5241375546       38.1903691452
 Pb        20.0490408307       25.2054485432       14.2590795819
 Pb        20.0592070002       25.1221941012       22.1974564841
 Pb        20.0891620955       25.0024584674       30.2511643692
 Pb        20.3250291305       25.0387563207       37.9688527857
 Pb        20.3432939867       34.0719922141       14.2090210025
 Pb        20.1548293208       34.6713409758       22.0157192805
 Pb        20.1440322576       34.5157751751       30.0950623968
 Pb        20.1788086601       34.2503627688       38.4267685305
 Pb        20.4734799182       40.9445059893       14.1732023490
 Pb        20.4190689010       40.3635989396       22.3840206882
 Pb        20.5350628934       40.1499237548       30.1555741898
 Pb        19.7476263193       40.2348681273       37.9904667790
  S        20.0538763368        6.7378686007       22.2927399654
  S        19.5813540772        7.2682735230       29.1861371260
  S        20.1207177776       22.2174430722       13.6918559436
  S        20.2221525152       22.2024921714       21.7016092422
  S        20.1278358976       22.1861131154       29.7585511519
  S        20.1499563836       22.2363726974       37.6526221597
  S        20.3838928620       38.3118047939       13.0238769928
  S        20.2626038602       37.6007424045       21.6690243813
  S        20.4287161110       37.3797578919       29.7612200523
  S        19.8949541860       37.5855861946       37.7937546977
  S        20.9150584683       12.0753483702       12.3930442412
  S        20.6557903438       12.3759695332       20.5428253080
  S        20.8240387932       12.5137268879       28.7765985489
  S        20.9699876284       12.5832506695       36.7962688243
  S        19.3599105644       15.4774668487       12.5474039003
  S        20.9172383577       16.4426745235       20.4883294728
  S        20.8570523382       16.6032716190       28.7640255836
  S        21.1639387850       16.5884708809       36.7578416932
  S        21.2153171792       27.5872649993       12.6223483401
  S        21.1970291469       27.7475341030       20.6225749023
  S        21.2113993567       27.7356179974       28.6584048826
  S        21.3107334167       27.8257151409       36.7559404467
  S        21.0422258912       31.7356225831       12.4090230261
  S        21.2178898713       31.8819514083       20.6176222882
  S        21.1044630880       31.8261502597       28.6593208357
  S        21.3372940834       31.8500225675       36.8056857030
  S        21.7511591952       43.8947372372       20.0916429771
  S        21.2825312984       43.1843810989       28.8642725319
 Pb        20.8024435323       14.2628882980       14.6136885641
 Pb        20.7947348124       14.7022132389       22.8248969776
 Pb        20.8821963351       14.5934306793       31.0209403945
 Pb        21.1308989006       14.6298528179       38.6998170630
 Pb        21.0266481485       29.6123031581       14.5924261417
 Pb        21.1400597508       29.7707288713       22.7787182408
 Pb        21.1839345134       29.7822409253       30.7338790481
 Pb        21.3651914850       29.8365891660       38.8243523031
 Pb        20.6775324378       44.8328195940       23.0743022084
 Pb        21.0105865523       44.5423257262       31.1789760524
 Pb        21.1458648417        7.1493065838       24.6807785485
 Pb        20.7334055081       23.3855530821        8.1873071707
 Pb        21.3970210647       22.3007462349       16.2591575813
 Pb        21.4495223228       22.2039189039       24.3183630638
 Pb        21.4828971970       22.2008978766       32.4443700244
 Pb        21.8868623087       22.4035790988       40.4803905568
 Pb        21.3292460261       37.6273152503       15.7408629571
 Pb        21.5792549396       37.3573670648       24.2752530016
 Pb        21.5988692182       37.2223633824       32.3200014778
 Pb        21.4070889100       37.1766681245       40.8037115788
 Cl        21.7185964100        9.0532139631       19.5493914656
 Cl        22.1366884473        9.5222348095       27.0919220130
 Cl        22.4602834397        9.3975539543       35.5903092867
 Cl        21.8313688056       19.1348786132       11.3929502564
 Cl        22.0207473574       19.5841003389       19.3511596144
 Cl        21.5792418531       19.9140956326       27.2380337116
 Cl        21.6661130314       19.8984028574       35.3353364856
 Cl        21.5069769265       20.6654216136       43.6085633990
 Cl        21.7404870706       24.3182362898       10.6427754153
 Cl        21.7926273137       24.4627101806       19.1150023988
 Cl        21.5481429056       24.3353934882       27.1363103190
 Cl        21.5217487924       24.5396399451       35.1437569664
 Cl        20.8775312162       24.4754425150       43.7247230528
 Cl        21.0877462394       35.1929478564       11.2630534786
 Cl        21.5015451669       35.3671684140       19.0712261022
 Cl        21.8935506826       35.0536996928       27.1857833185
 Cl        22.0360909528       35.0496653026       35.0763400529
 Cl        22.0620448910       40.2862582293       19.3315146527
 Cl        21.8556092890       39.7910563379       27.3373875526
 Cl        21.6714848255       40.9001341364       35.8525752791
 Cl        22.9294420650       11.8232018721       15.7402336874
 Cl        22.2633131770       11.8587372322       24.2690860268
 Cl        21.8545526499       12.1019492818       32.5543738594
 Cl        21.7362168577       16.9636925259       15.6417545043
 Cl        22.3051351862       16.7161381593       24.1347781800
 Cl        22.1289602157       16.8833911248       32.4527558782
 Cl        21.7588784148       17.3038866547       40.6767939876
 Cl        22.3842415578       27.4547382146        8.2738912275
 Cl        22.4270582046       27.4645239728       16.3783989559
 Cl        22.4514155388       27.5575640344       24.4107193624
 Cl        22.3213943907       27.6306262793       32.6138989998
 Cl        22.8105787326       28.7313152236       41.5663309831
 Cl        22.4270630111       31.9209875304        8.4534647295
 Cl        21.9421529115       32.3986548929       15.9651994052
 Cl        22.4784552331       32.0523355174       24.4160727873
 Cl        22.3592801649       32.1275993233       32.5221495062
 Cl        21.5593152107       32.4748509383       40.6145159794
 Cl        21.8635733584       43.1076395116       16.1081276112
 Cl        22.3348848780       42.7608183907       23.5812432808
 Cl        21.5834567153       42.2832678958       32.4921037731
 Pb        21.2797897659       14.3447944095       11.0252300943
 Pb        22.0304590292       14.3353759157       19.1221227949
 Pb        22.1869162299       14.5172900184       27.4386317853
 Pb        22.0100746771       14.4259635322       35.0742154005
 Pb        22.0332313667       29.5623693601       10.7112815074
 Pb        22.3214749891       29.7788655562       19.1222121906
 Pb        22.3367172350       29.8206859158       27.1363007727
 Pb        22.2223965911       29.8333570931       35.0353443812
 Pb        23.5462829032       30.0159530266       43.8913393248
 Pb        23.4380000350       45.4916053464       18.9661558168
 Pb        22.3826223093       45.3702708190       27.5711835839
 Pb        22.3685524370        6.8624568295       21.0070206137
 Pb        22.1799756191        7.2546571941       28.7090056997
 Pb        22.6779953977       22.2766003200       12.7789030691
 Pb        22.8271908900       22.2554487689       20.7662778390
 Pb        22.7437369056       22.2257790924       28.8037986596