     381
 i =        2, E =    -10371.1328174795
 Cd        20.9829149747       27.0726753587       20.9870575134
 Cd        24.0966096253       30.1560820683       20.9161485547
 Cd        27.1623111115       33.1493181028       20.7071354542
 Cd        21.6478440130       29.9692851112       12.1428899728
 Cd        11.8856965681       17.8227575677       20.7048769644
 Cd        14.8699406983       20.8850430557       20.9113017569
 Cd        17.9243600396       23.9912342883       21.0006743879
 Cd        23.9950735386       27.0759554642       24.0074976506
 Cd        27.1205873171       30.1015181945       23.8934623879
 Cd        29.9422779204       32.8647382914       23.4262263811
 Cd        17.6160741178       14.5737154472       17.6139595310
 Cd        12.1562793549       15.0058415019       23.3456689749
 Cd        14.8864066312       17.8732134140       23.8998248494
 Cd        17.9156169679       20.9553044361       24.0414626229
 Cd        20.9328124277       24.0576021553       24.0688294314
 Cd        27.0694637755       27.0845598276       26.9967212119
 Cd        30.4625598834       30.4928347619       27.2366134068
 Cd        20.8175987616       17.7756268699       17.7981420729
 Cd        14.6209907683       20.4679547757       14.6475576844
 Cd        15.1749544883       15.1275540889       26.8118195895
 Cd        18.0105464599       17.9189948957       27.0819943454
 Cd        21.0026827267       20.9955610800       27.0765644907
 Cd        24.0392658326       24.0375440583       27.0904595977
 Cd        29.8540575562       26.8090832769       29.8352494051
 Cd        24.1216003387       14.8420956471       24.1022211846
 Cd        17.7891144350       14.5097900112       30.4800236887
 Cd        21.1149734915       17.8608539778       30.0932956934
 Cd        24.0940810001       20.8877479547       30.1412088553
 Cd        27.1124838305       23.8952679756       30.1204541818
 Cd        27.2183830023       17.8105065386       24.1955978215
 Cd        33.1521952585       20.6980215660       27.1392590516
 Cd        27.0812119143       21.0060391075       20.9817707507
 Cd        26.7857075064       12.0382816330       18.4146833974
 Cd        27.1842709442       27.2102176505       20.7904407862
 Cd        24.3084518590       17.8232555112       33.1315548700
 Cd        27.1591078507       20.6920910911       33.1159059628
 Cd        29.9779009442       23.3350626790       32.8505358568
 Cd        24.0263562308       20.9671415301       17.9135237275
 Cd        23.9146745950       21.0744257063       11.7623764515
 Cd        15.0837028289       12.1366237006       23.4150949378
 Cd        17.8386219162       20.6758210294       11.8879676016
 Cd        26.8111804180       15.1452755461       15.1565668698
 Cd        21.0632270700       23.9140162409       11.7626835838
 Cd        32.8342579840       29.9811757802       23.4245443822
 Cd        27.4101312459       17.6123117399       30.4038650442
 Cd        33.1362411505       24.3447767997       17.8368738203
 Cd        18.4415993238       12.0229068568       26.7767668546
 Cd        17.8028863646       17.7713492559       20.8251831831
 Cd        30.3664159416       24.5265839268       14.6336461915
 Cd        30.1591460867       20.9027440122       24.0697529486
 Cd        20.9193357990       14.8530315525       20.9099321493
 Cd        21.6150187042       12.1492755818       29.9579371186
 Cd        24.4863513588       30.3785210473       14.6394477874
 Cd        24.0549161102       24.0632396562       20.9239269828
 Cd        21.1019671744       11.7470041683       23.9448920996
 Cd        24.5303297574       14.6033209781       30.3987621738
 Cd        15.1234963280       26.7785181932       15.1603308079
 Cd        18.1816147956       29.8493046051       15.1632576848
 Cd        21.5836536005       32.8461782219       15.0658700663
 Cd        12.1448207712       23.3681939868       15.0680673352
 Cd        17.9144130158       27.0558995471       18.0013939182
 Cd        21.0915142285       30.1640703653       17.9073043671
 Cd        24.2986649894       33.1470741907       17.8442232595
 Cd        20.5047485524       14.6163469131       14.6447975626
 Cd        11.8590081130       20.6633304513       17.8462829871
 Cd        14.8298298168       23.8751449650       17.9081163790
 Cd        20.8647204874       30.1490774909       24.0784103871
 Cd        23.9152341060       33.2542625856       23.9171954614
 Cd        11.7592728524       21.0660034855       23.9268426746
 Cd        14.8554227260       24.1003904293       24.0884651592
 Cd        17.7889239112       27.1884679115       24.2096512615
 Cd        23.8775430641       30.1721962102       27.0841698039
 Cd        26.7462649076       32.9815647327       26.5766794355
 Cd        12.0825380485       18.3385406770       26.6553579054
 Cd        14.8826370591       21.1041224019       27.1123941647
 Cd        17.7917079575       24.1753989509       27.2252080418
 Cd        20.8155404326       27.2163126994       27.2090328386
 Cd        26.7846640322       29.8733058691       29.8325536950
 Cd        27.0731605313       24.0166334784       24.0035247704
 Cd        26.6475556485       18.3575144613       12.0729101931
 Cd        27.0776614503       17.9360253854       17.9952632962
 Cd        24.0178035511       17.9280331372       20.9933493305
 Cd        15.1672955183       18.1910437576       29.8638604579
 Cd        17.9107457330       21.0945354904       30.1709805033
 Cd        20.9069949561       24.0965028111       30.1338151179
 Cd        23.8891505913       27.1170440300       30.1209470811
 Cd        30.4870376608       14.5371690146       17.7509401823
 Cd        18.4248494782       18.2209756707       32.9720903863
 Cd        21.0824879963       21.0527328645       33.2452425951
 Cd        23.9242503782       23.9190588621       33.2408723008
 Cd        26.6459797639       26.6545220771       32.9205391430
 Cd        27.2010772613       11.8688006137       24.2987300410
 Cd        27.1417076599       14.9141009460       21.1040202858
 Cd        30.3828961121       30.4180867212       20.5021033443
 Cd        17.9205501936       14.8226768827       23.9047692415
 Cd        14.5953260567       17.5800929801       17.6206078850
 Cd        29.8684398349       18.2215895479       15.1581382157
 Cd        32.8462186573       21.6347809250       15.0565764741
 Cd        27.1072627545       21.1143571651       14.8771984520
 Cd        23.3385343170       15.0238605650       12.1432351904
 Cd        29.9729430847       12.1619167465       21.5691084212
 Cd        30.3878649741       20.5057931536       30.3490953526
 Cd        30.4182833875       14.6101335374       24.4875035734
 Cd        27.1409634845       24.3107465531       11.8791087177
 Cd        30.1487699409       24.1381451526       20.9088751268
 Cd        30.1028861586       17.8771965625       21.0888370832
 Cd        24.0849687541       24.0958807602       14.8763470244
 Cd        33.1310879129       27.2146671221       20.6970522755
 Cd        24.2208055842       17.8026639929       27.2045498616
 Cd        21.0021251460       17.9217110737       24.0118839801
 Cd        33.2533264260       21.0850987306       21.0649294892
 Cd        14.5023342333       30.4552066465       17.7569518821
 Cd        18.2050336715       32.9550227078       18.4138074685
 Cd        12.0160466458       26.7436993106       18.4147672398
 Cd        17.8483452723       30.0808787646       21.1026445116
 Cd        21.0357685989       33.2471649483       21.0743188434
 Cd        24.0692343653       20.9428084064       24.0653441413
 Cd        27.2106607385       24.1902035327       17.7817688580
 Cd        11.7504289396       23.9218797533       21.0778965426
 Cd        14.8977714207       27.1180423811       21.1023968052
 Cd        20.6576642534       33.1412330809       27.1469914000
 Cd        11.8754848905       24.2999311166       27.1529325084
 Cd        14.5799214963       27.3853488447       27.3954072238
 Cd        17.5831335512       30.4027709423       27.3842218848
 Cd        23.3734938701       32.8554219699       29.9241175092
 Cd        32.9785994505       18.2535426448       18.4057826874
 Cd        21.1298182967       14.9055264103       27.1316674964
 Cd        23.8911401967       17.8853722489       14.8811935308
 Cd        20.9604343537       24.0242185931       17.9126287235
 Cd        24.2859270414       27.1520869870       11.8815943304
 Cd        29.9663851484       21.6806969473       12.1384072007
 Cd        12.1463330443       21.6625549280       29.9774099883
 Cd        14.6430018285       24.4953309602       30.3784203629
 Cd        17.6072391088       27.3931378818       30.4087274406
 Cd        20.4856073270       30.3764868195       30.3519422953
 Cd        17.6059616306       17.5878060881       14.5993680383
 Cd        20.9348853995       20.9331772394       20.9331687435
 Cd        15.0714549143       21.5919715420       32.8515125586
 Cd        17.8430487559       24.3067905376       33.1419049032
 Cd        20.6935036675       27.1571520487       33.1207971266
 Cd        21.0901593297       27.1073187839       14.8784363638
 Cd        27.3777846366       27.4034097647       14.5874458765
 Cd        24.1701237021       27.2216878195       17.7848121635
 Cd        17.8534768503       11.8431151059       20.6968260849
 Cd        30.0855021025       27.1487291699       23.8891773474
 Cd        27.4162526840       14.5978274596       27.3888692079
 Cd        30.4287147689       17.6114419143       27.3745025864
 Cd        20.7044202109       11.8478823568       17.8418936169
 Cd        27.2332674988       20.8322835709       27.2062364218
 Cd        27.3845843208       30.4229614479       17.6097856560
 Cd        30.1689161833       21.1276088766       17.9000067140
 Cd        20.6910904493       17.8350563723       11.8872803675
 Cd        24.3272238644       11.8662111886       27.1729432450
 Cd        23.9617722673       11.7517836435       21.0826733980
 Cd        15.0114533528       32.8281754634       21.5699408008
 Cd        30.1712710149       23.9070672938       27.0821741616
 Cd        32.9609972251       26.7875192864       26.5788479004
 Cd        23.9050176482       14.8336999323       17.9053598094
 Cd        33.1506726528       17.8353523249       24.2720512606
 Cd        17.7851314286       33.1302399870       24.2883995024
 Cd        15.0155977774       23.3092814442       12.1466440962
 Cd        11.8533346688       27.1590377313       24.2929512271
 Cd        14.5785431890       30.3807276177       24.4960235360
 Cd        17.7802685049       20.7974485164       17.7984023687
 Cd        18.3344680918       26.6360775038       12.0762230675
 Cd        30.3959450356       27.4184649254       17.6076106207
 Cd        32.8524523083       23.4097063410       29.9217803626
 Cd        17.8767313489       23.8733176211       14.8832016387
 Cd        33.2495840334       23.9624871066       23.9105920540
 Cd        20.8960495678       20.8919721025       14.8794490951
 Cd        23.4138077413       12.1516184112       15.0644506602
 Cd        14.6543304828       14.6071335540       20.5122232390
 Cd        12.1294818302       29.9350827568       21.5715819054
 Cd        21.6026389252       15.0383744277       32.8486142172
 Cd        23.3253090242       29.9813191354       32.8500191164
 Cd        32.8631088737       15.0514833726       21.5579866534
 Se        22.3555382286       28.8291328783       28.8025456832
 Se        25.6256173064       13.2326710278       22.5304632813
 Se        25.6962840717       28.8246966630       19.2699362731
 Se        25.9054654346       12.9501213044       28.8952926613
 Se        13.2318490718       22.5296151554       25.5885725215
 Se        31.7891789800       22.5830332394       19.4177848096
 Se        31.8530914253       19.4720901538       16.3215642897
 Se        22.5649133316       19.3571788199       25.6470698776
 Se        19.3827693811       25.5908853989       16.3063320225
 Se        19.4042600915       22.4455439453       13.2360365320
 Se        28.8809049740       32.0715462322       19.1202387857
 Se        16.3373986807       19.4349961737       31.8528670062
 Se        12.9276519291       28.8771377052       25.8806672300
 Se        16.3134611970       19.3826368477       25.6136617116
 Se        28.8824480229       25.8775497097       12.9401553866
 Se        25.5122975191       28.7438991530       31.8202669435
 Se        28.6949102267       25.5652160675       25.5567073200
 Se        19.2735116660       28.8091433901       25.7245290861
 Se        22.4190567174       31.7915149201       25.5658824006
 Se        19.1353012530       16.0864866492       12.9542637251
 Se        13.2237725593       25.5895509879       22.5295979739
 Se        12.9563075959       31.9928938865       22.8303381562
 Se        25.7081652787       25.7261686265       16.1858149729
 Se        25.8421643261       28.9027665869       12.9430205675
 Se        22.5383929234       31.7920567217       19.4245274182
 Se        22.4467859559       19.3497207535       19.3503761092
 Se        19.2747460958       19.2636277857       16.1961758804
 Se        22.4965800388       22.4992767159       22.4962731157
 Se        16.1906683478       19.2553845776       19.2912502326
 Se        25.8559453829       32.0633680137       16.1021034936
 Se        25.5673223142       13.1584875089       16.3269229696
 Se        19.2833343467       25.7218319781       28.8132885634
 Se        25.5601186746       16.3073041431       19.4327890433
 Se        13.0082329123       22.8436208447       32.0484184114
 Se        13.2332243588       19.3929616135       22.4715300444
 Se        19.3505771282       25.6377652329       22.5574492600
 Se        22.4846378709       28.6867486432       22.4976469063
 Se        28.8298851682       19.3020436956       25.7146209551
 Se        28.9166194715       19.1489860044       32.0448374656
 Se        19.4365016111       13.1976805205       22.4512116565
 Se        22.4908525000       22.4938493625       16.3303206584
 Se        28.7382054622       31.7072758733       25.5176512570
 Se        19.1347247006       12.9303616312       16.1088202510
 Se        25.5895321783       22.4620832725       31.7659742836
 Se        16.1812232228       25.6981379300       25.7361472250
 Se        31.7088890538       16.2580030775       19.4631223447
 Se        31.9988278417       32.0366335122       22.1648459027
 Se        28.7348732764       25.5245069977       31.8203762943
 Se        28.7041590475       19.4612802761       19.4255712625
 Se        22.4430674491       25.6414901428       25.6528249388
 Se        13.2883616987       28.7325011543       19.4789451223
 Se        28.7073947147       28.7291052293       28.5173320516
 Se        19.3491548906       22.5461583375       25.6516882830
 Se        16.1668390664       22.3365645069       16.2002794621
 Se        22.5163844633       16.3131193250       22.5055929377
 Se        22.1548246166       12.9547862977       13.0043499248
 Se        16.1837398458       28.7858097858       22.6955627530
 Se        28.8380119551       22.3788524155       28.8010553899
 Se        19.3470745755       22.4370586880       19.3473445205
 Se        22.4639414774       25.5916018663       31.7716017565
 Se        19.3615143320       31.7705444809       22.5211557864
 Se        25.6071757796       25.6142520114       28.6925070132
 Se        25.5334163180       31.8555943625       28.6614686793
 Se        22.3624411985       16.1701148522       16.1987733690
 Se        22.5406882091       25.6450919904       19.3407223841
 Se        16.3487713386       13.1419973246       25.5677293019
 Se        16.2524678063       25.4943165548       13.1799807541
 Se        22.7130113733       16.1985438163       28.8063195044
 Se        28.6892230018       22.5171343922       22.4898513622
 Se        16.0723604827       32.0421578781       25.8741666484
 Se        31.7731184660       25.6374313522       22.4640364333
 Se        22.6191369168       28.8257686709       16.1897508421
 Se        13.0205344235       12.9382203638       22.1612173384
 Se        19.4621649211       28.7256288045       13.1761770885
 Se        12.9525002160       22.1140236752       13.0079208972
 Se        12.9567830027       16.0737523079       19.1503652228
 Se        32.0762766676       16.1153827884       25.8589871570
 Se        28.8031285265       25.7289419070       19.2667010256
 Se        13.1856116018       19.4759182931       28.7392568344
 Se        32.0446556104       25.9015910261       16.0981931591
 Se        25.5751708977       22.5419660298       13.2319929686
 Se        22.4547620152       19.4081184970       13.2352944568
 Se        19.4992326122       16.2359816480       31.7009735778
 Se        12.9447561214       25.8487121176       28.9072975831
 Se        19.4294480045       22.5528507159       31.7915227346
 Se        19.4493246788       19.4463283364       28.7017095353
 Se        13.1896259748       16.2496050949       25.5284080266
 Se        16.2174088259       31.6759911128       19.4758729435
 Se        22.5528329845       13.2289843572       25.6065523297
 Se        19.5116059198       13.2999914553       28.7602156274
 Se        13.1422916223       25.5262374084       16.3320594674
 Se        16.0575658450       28.9219116100       28.9359992392
 Se        28.9532534145       16.0835757986       28.9244848681
 Se        16.3219014671       22.4769138121       22.5179384563
 Se        16.0703717595       16.0462604029       16.0745795011
 Se        28.8220404337       22.6512084108       16.1845631836
 Se        19.1335397986       28.9012805259       32.0500294713
 Se        31.7963910760       22.4594969431       25.5601584261
 Se        16.4968373692       16.2752574774       28.7264368794
 Se        28.9127527090       28.9449828058       16.0581555074
 Se        32.0522708214       22.1610704580       31.9881815901
 Se        25.6412159437       22.5571535393       19.3384994148
 Se        25.7374710686       16.1931080780       25.7148404971
 Se        22.4605299625       13.2020068780       19.4224225982
 Se        16.1164753543       12.9262699542       19.1327450302
 Se        16.1089612155       25.8723224709       32.0597696121
 Se        28.9237581605       12.9559913689       25.8727186368
 Se        25.7447843882       19.2993788690       28.8093437820
 Se        19.4309666433       28.6903761873       19.4326446810
 Se        25.6502433776       22.4562261398       25.6488992367
 Se        28.7698737936       13.3195653071       19.4752006560
 Se        22.5383964414       19.3909539517       31.7690815402
 Se        19.2875960702       16.1724360598       19.2859566616
 Se        12.9424651755       19.0924566348       16.1167145225
 Se        25.5402270012       28.7030381455       25.5585974716
 Se        28.7236553156       16.3001706769       16.4738976788
 Se        25.6313519228       25.6468693680       22.4364674210
 Se        22.8301409659       32.0403546026       12.9996117261
 Se        16.2088565617       16.1608099038       22.3700093901
 Se        28.7869055613       28.8129165904       22.2989724935
 Se        25.6534083356       19.3683256995       22.5501567809
 Se        13.2086486202       22.4203854172       19.4291132003
 Se        16.2946474738       25.5308225613       19.4421056381
 Se        25.6004073020       19.4000919038       16.3051132316
 Se        31.8447823392       25.5702563152       28.6639495045
 Se        31.7821415941       19.4049527481       22.5077504267
 Se        28.8178899246       16.2090969157       22.6825232230
 Se        22.8658789683       12.9844485554       32.0186123328
 Se        25.5940543289       31.7816315098       22.4726378159
 Se        22.5178774598       22.5105031534       28.6801058778
 Se        32.0355992804       12.9944525878       22.8181103604
 Se        32.0715900649       19.1387239075       28.8801480513
 Se        32.0391742281       28.9266604215       19.1132459089
 Se        16.1994378085       22.6283188418       28.8346187394
 Se        31.6818252806       28.7748911987       25.5160148302
 Se        22.5225856146       25.5801984806       13.2337567124
 Se        22.1313367006       32.0461049862       31.9909340295
 Se        19.1029668411       32.0517142949       28.8878599973
 Se        16.2677067219       28.6948965874       16.4819308526
 Se        19.4252651558       31.8384461793       16.3281692341
 Se        19.4499936772       16.2968756175       25.5582351408
 Se        25.9018404939       16.1117712222       32.0554779339
 Se        28.7317832992       19.4946621184       13.1733643580
 Se        25.5184066320       16.2698588394       13.1773800804
 Se        32.0312773219       22.8772215962       12.9913902314
 Se        16.0969803085       19.1111058596       12.9541298894
 Se        19.3559703644       19.3489826985       22.4500626327
 Cl        28.3927000005       22.4183282969       10.3936102449
 Cl        34.6692716155       19.5788905374       25.4009497650
 Cl        25.4488794496       10.3599185959       25.4195789469
 Cl        28.4110823600       22.5974299311       34.5974418046
 Cl        22.5770119777       10.3803725918       16.5691104799
 Cl        34.7881414945       22.5291537725       22.4832899857
 Cl        10.3740868688       28.4056967652       22.4299087301
 Cl        16.5222213060       34.5988107435       22.4250865422
 Cl        19.5711123839       10.3130181280       19.5580319787
 Cl        34.6121493365       22.4729632562       16.5639327079
 Cl        16.0819819671       13.3324700882       31.6478968144
 Cl        10.3984645540       22.3952269770       28.4099618137
 Cl        25.4266226879       34.7523991893       25.4989471618
 Cl        19.5134850616       34.7343782799       19.4903060640
 Cl        22.4510183658       16.5657336122       34.6102070621
 Cl        19.5147328617       10.2515027565       25.4545609755
 Cl        22.5847286007       28.4193970795       34.6025257989
 Cl        22.5024869616       22.4970430298       34.7851364328
 Cl        10.3388010092       19.5310766240       19.5802678827
 Cl        16.5815252936       22.5637286885       10.3997315035
 Cl        28.4189357652       34.6246344713       22.5674439524
 Cl        22.4847705221       22.4909606246       10.2150150026
 Cl        22.3857953114       28.3982397599       10.3974463745
 Cl        34.6548189040       25.4789423852       19.5624772681
 Cl        22.4712433423       34.7875082572       22.4949443212
 Cl        31.6385385460       13.3518130206       16.0382310362
 Cl        10.3450433369       25.4019493255       25.4209125798
 Cl        34.6234822725       16.5791687232       22.4059327699
 Cl        22.5223715177       10.2124384857       22.5017175697
 Cl        10.2468325401       25.4210704818       19.4930151141
 Cl        22.4643572806       10.3891286854       28.4336978297
 Cl        25.4713561221       25.4830833904       34.7289766091
 Cl        19.5751673086       25.4407891896       34.6639296716
 Cl        28.4543622823       10.3993934928       22.4257632453
 Cl        22.5837035016       16.5880504497       10.3981065270
 Cl        10.2120787058       22.4790510296       22.5003231279
 Cl        22.5326507018       34.6171404902       28.4117731297
 Cl        10.3800066432       22.5283648064       16.5798077734
 Cl        10.4044021449       16.5645127994       22.5992106140
 Cl        19.5219491963       34.6552931648       25.4159535468
 Cl        19.5686441457       19.5617317335       10.3542492167
 Cl        22.4129408012       34.6125311275       16.5771204119
 Cl        31.6397289199       31.6809982598       28.9293602012
 Cl        25.4194244198       34.6677642532       19.5752357104
 Cl        34.7501898882       19.5765719173       19.4766175805
 Cl        34.6170825713       22.5838857022       28.4048182352
 Cl        34.7386671956       25.4833118419       25.4924960276
 Cl        34.6033015095       28.4735768549       22.5572969275
 Cl        19.5019683983       19.5429293403       34.7435871604
 Cl        19.5060342514       25.4580553340       10.2690947614
 Cl        16.5829261028       22.4325275477       34.6168314358
 Cl        25.4301831417       19.5806489533       34.6443113634
 Cl        10.2729599632       19.5043101825       25.4776702201
 Cl        16.5905891791       10.3702816875       22.5709183308
 Cl        25.4642727331       19.5257118934       10.2667269164
 Cl        25.4684674348       10.2624516626       19.4863668916
 Cl        25.4014444465       25.4202784959       10.3501221688
 Cl        13.3107592465       31.6094205704       16.0507694942
