     691
 i =       67, E =    -24632.9049390941
 Zn        18.6846395972       24.0333759244       18.6015858698
 Zn        21.4019558005       26.7469181534       18.6034018079
 Zn        24.1930646434       29.3756835909       18.5910671973
 Zn        26.9087542590       32.1730918773       18.6089675845
 Cl        25.1209150522        6.3661155215       17.6361600013
 Zn        32.4953643895       20.9934041196       27.0822006204
 Zn         8.8010456438       12.8424898439       19.4985300138
 Zn        10.6870559632       16.2072850716       18.6795883152
 Zn        13.3412200333       18.7543394287       18.7535783412
 Zn        15.9780794510       21.3921235838       18.6735953455
 Zn        21.3928604536       24.0221177852       21.3290612183
 Zn        24.0327200958       26.7445195362       21.3939831308
 Zn        26.7355150050       29.4673034634       21.4112774525
 Zn        28.3994056159       32.0987593342       20.9035471140
 Zn        21.8955818353       26.4186233835        7.8225411868
 Zn        15.8919657032       13.3255796350       16.0487886669
 Cl        33.5653640821       17.6392916406       14.7453342848
 Zn        10.7086522064       13.3251606867       21.4671278943
 Zn        13.3245918277       15.9650335111       21.4009154346
 Zn        15.9743996132       18.6776632024       21.4027333300
 Zn        18.6798411815       21.3281537230       21.3443009703
 Zn        24.0346573994       24.0296253325       24.1091506251
 Zn        26.7433446396       26.8304921935       24.2022330057
 Cl        17.4494888081       33.4232388760       20.2210264639
 Zn        18.6716083036       15.9701492052       15.9594362684
 Zn        13.4243278257       18.6722336066       13.2518164663
 Cl        20.0618560124       17.1995909506       33.4603107367
 Zn        13.3356836901       13.1672624575       24.1936163273
 Zn        15.9671841463       15.9627699287       24.1137876467
 Zn        18.6750781926       18.6754560949       24.1023427050
 Zn        21.3275491457       21.3278299025       24.1036622100
 Zn        26.7594923716       24.1016128634       26.8214779680
 Zn        28.4836190422       27.2405881730       27.3245123576
 Zn        12.9138584053       31.2044598215       20.5769357300
 Zn        31.8487071967       23.8674729462       26.0907926570
 Zn        21.3048600159       13.3919234022       21.2431096319
 Zn        13.6594770930       10.6185284749       26.8247127993
 Zn        15.9737834737       13.2553199406       26.8382479692
 Zn        18.6974676445       15.9729613920       26.7567845681
 Zn        21.3873116313       18.6681880922       26.7728805273
 Zn        24.0514147986       21.3203655881       26.7657824940
 Cl        19.1794833202       12.0892379187        6.6345134734
 Zn        26.8371126884       13.3235701348       15.7962786155
 Zn        24.0277727575       15.9833689450       21.3147474996
 Zn        29.4527674867       18.5146603585       24.0411776083
 Zn        24.0248679719       18.6114090480       18.6802642585
 Zn        21.0755785636        7.9846775286       16.1313251507
 Zn        24.1176017170       10.5478934906       15.9686756811
 Cl        33.4855403401       14.9658596732       17.1920385777
 Zn        18.6800157343       13.2515424170       29.5483910224
 Zn        21.4125356954       15.8817952694       29.3883426304
 Zn        24.0974188126       18.5230105398       29.4546549928
 Zn        26.9793834243       21.3916863710       29.3016710679
 Zn        21.4003257295       21.3936906842        7.9697812947
 Zn        32.0040079701       26.3469874975       23.0522762056
 Zn        21.4770886004       13.1789279282       32.1762880069
 Zn        24.2750538814       15.9620129676       32.0885079945
 Zn        26.3361330933       17.9425619394       32.2616901512
 Zn        27.1738974518       20.9117518533       32.3364465044
 Zn        21.3959611699       10.6165702079       13.1705073860
 Zn        21.3186801171       18.6835579937       10.6125388765
 Zn        13.3383339481       10.4730242941       21.4060408763
 Zn        26.7409009747       21.5505431193        7.8231534194
 Zn        29.3853187845       26.5037093368       16.2075246616
 Zn        15.8840736050       18.6024890402       10.6195294287
 Cl        14.4900676156       17.6456369492       33.3894980795
 Zn        24.1119063079       13.2453451524       13.2394446170
 Zn        18.6793295621       21.3825298360       10.5511819051
 Zn        13.1558058211       13.5032319568       13.4930974454
 Cl        14.9130795904       22.7416332750        6.5086169290
 Zn        21.3221561459       15.9743800835       18.6054423212
 Zn        24.0243132885       15.9808786664       10.6143192590
 Zn        23.9554062372       15.9630171034       26.7444650057
 Zn        29.3101752529       21.3935985905       16.1403122258
 Cl        33.4308763912       19.1718718159       27.8792489249
 Zn        16.0615426139       10.6049390129       24.0395945835
 Zn        29.4762972502       13.3337731910       18.5900971061
 Zn        32.1012541233       15.9810868865       18.7669239970
 Zn        18.6631663848       18.6765348176       18.6717731971
 Zn        15.8903019655        7.9919761086       15.7222048515
 Zn        13.9061589928        8.0781999180       23.7949856781
 Zn        15.9576554074       16.0643406897       13.2565002835
 Zn        17.9552141064       13.7404695753        7.7407814882
 Zn        10.6192534775       13.4964327300       16.2044236929
 Zn        15.9743088522       15.9845076377       18.6858679917
 Zn        26.5078976154       21.4025222623       13.2559272849
 Cl        33.5598099898       22.3195257121       25.3292666758
 Zn        26.5825990155       26.7385469544       18.6733745135
 Zn        29.3906238162       16.1339262457       15.9718063417
 Zn        26.7446517357       18.6039656705       21.3958883438
 Zn        18.7660324601       13.2457993000       13.2472007150
 Zn        26.7369824212       18.6950461429       10.4572248214
 Zn        16.0477054380       21.2449077040        7.8992638488
 Cl        11.8078367114       10.4027596820       28.4081641024
 Zn        13.2494192998       26.5763426989       10.6096644507
 Cl        33.9789430527       12.7898774441       19.8951976243
 Zn        19.0953570337       32.3427469189       12.9941873327
 Zn        13.3284504512       16.0570846672       16.0509829083
 Zn        21.2346373885       26.8270552361       13.2448347120
 Zn        24.2783107036       29.1460440171       13.4101488049
 Zn        21.3345821789       21.3258373990       18.6747008025
 Cl         7.3357320087       26.1374057604       23.5298070979
 Zn        13.2563172562       24.1111879785       13.0962347657
 Zn        15.8779896206       26.7550186711       13.1780355842
 Zn        18.4459458469       29.2908859244       13.0096415595
 Zn        22.1307024849       32.3324418679       13.8107316102
 Zn         8.7303497062       19.5092881757       12.8457415505
 Zn        10.7077769417       21.3894681343       13.3294712811
 Zn        15.9733459436       24.0335953162       15.8932187452
 Zn        18.6145923540       26.7607808566       15.8964291946
 Zn        21.4882316203       29.4515499455       15.9627381927
 Zn        24.1232970392       32.0817321279       15.8046718113
 Zn        31.9368334137       21.3954281594       18.5870732835
 Cl         6.6635321572       20.8127045242       27.9352784281
 Zn        10.6862632211       18.6810380263       16.1971330868
 Zn        13.3311722896       21.3922152288       15.9694663655
 Zn        18.7563138710       26.6555429357       21.2462934552
 Zn        21.3991690238       29.3723465708       21.3047391860
 Zn        24.0425282859       32.0964276191       21.2306168716
 Zn        32.0896724586       21.0666452357       23.8616569403
 Zn         7.9005221798       16.2161707999       21.2336124637
 Zn        10.6222176060       18.7560134234       21.3996138691
 Zn        13.2673291013       21.3361448967       21.4144451972
 Zn        16.0396726261       24.0203126808       21.3203905843
 Zn        21.3236151132       26.6562284620       24.0370387791
 Zn        23.9428747264       29.3827369719       24.0325098630
 Zn        26.2483870827       31.8455478650       23.7938185451
 Zn        26.7619239825       21.3885288249       24.1103204701
 Zn        10.8544899571       10.6981803073       18.6798954805
 Zn         7.9987466878       13.5821847803       23.0498987034
 Zn        10.5554046831       15.8802378334       24.0360462335
 Zn        13.2418350754       18.5306350595       24.1308582235
 Zn        15.9666507300       21.3166652368       24.0457207699
 Zn        18.6855014797       23.9545940893       24.0315657403
 Zn        24.0326174893       26.6672730702       26.8377708344
 Zn        26.1745275960       29.2012411503       26.6571767312
 Zn        24.0291563490       15.9741035721       15.8983862779
 Zn        18.6853197074       10.7676276209       26.6736824964
 Zn        11.6804205849       12.4402886086       27.3194160700
 Zn        13.2366809153       15.6563731560       26.9888645231
 Zn        15.9521940684       18.6093079746       26.7555699437
 Zn        18.6131736617       21.3199941492       26.8172828109
 Zn        21.3217600868       23.9619500259       26.8153289366
 Zn        26.5863403417       26.8253922478       29.2845157623
 Cl        12.0607174095       20.8856455094       33.3528503106
 Zn        24.0414651481       13.3278246812       18.5926537646
 Zn        29.3847655053       23.8733293721       13.4968513861
 Zn        13.7452740599       13.0073855707       29.6168861130
 Zn        16.1327403603       16.0707722052       29.3706366402
 Zn        18.6969722617       18.6758247765       29.4587581651
 Zn        21.3854972608       21.3132418635       29.4581437797
 Zn        24.0320070903       24.0203014257       29.4484440845
 Zn        29.4589497046       24.1062970867       24.0329113414
 Zn        21.3993626745        8.0667174062       21.4029261574
 Zn        23.8628503106       10.6920170430       21.3206999979
 Zn        16.0474375479       13.0901928829       31.9369226073
 Zn        18.6787580142       15.8753026248       32.1737443776
 Zn        21.3226744215       18.5227577835       32.1018262662
 Zn        23.8743761408       21.0785277664       32.0852220751
 Zn        26.4318515431       23.7811180708       31.6884435572
 Zn         7.8372982173       28.3108487568       19.1747243210
 Cl        33.6740544447       25.0219917385       22.3595427600
 Zn         7.9019975226       26.8305456135       21.4754223871
 Zn        10.7144748549       29.1521343815       21.3350495839
 Zn        26.6726251800       16.0399917263       13.1664736252
 Zn        29.2293391935       18.6832329888       13.2641222656
 Zn        23.9581697240       18.6915308844       13.2431748954
 Zn        23.8731345525       10.6104198148       26.5000390633
 Zn        23.9538164965       18.7757984635        7.9041983863
 Zn        15.9753588729       13.2550806211       21.3867548206
 Zn        31.2008436898       20.5765730837       12.8308378765
 Zn        23.9471525685       24.3622188343        7.9114683754
 Zn        29.1373297019       15.7266910403       26.6567113380
 Zn        32.1057396278       23.7181511798       21.2368405495
 Zn        29.2268871973       29.2898414759       18.6746792286
 Cl        28.4957640041       11.6804178968       10.7026163525
 Zn        21.1529872746       16.1321551712        7.9887728755
 Zn        23.7912177162        7.8973699551       18.7638313868
 Zn        26.7322343482       10.7105158675       18.5248842378
 Zn        32.1757305663       13.1702191243       21.3979186227
 Zn        26.8262535442       18.7614242713       26.7496325438
 Zn        26.5077380485       13.1601179616       26.5039043479
 Zn        26.7436088577       13.4256722994       21.3258000666
 Zn        32.0670018802       15.8914730027       24.2699763737
 Zn        24.1069803769       21.4792778016       10.6126794077
 Zn        26.6497144881       21.3018033777       18.7575073794
 Zn        29.1402078539       21.4970098347       10.7024695968
 Cl        17.4944342209       19.9749335416       33.4719637025
 Zn        16.9463007954        8.1524069525       26.5048213109
 Zn        29.3110145512       23.7953581377       18.6741137753
 Zn        32.0994574626       18.7706566441       16.1386773069
 Zn        10.7781551906       26.5800071381       13.1878557992
 Zn        12.7464033780       28.5591606688       12.8565930014
 Zn        16.2018862474       31.8525816981       13.9911162866
 Zn        29.3760570036       18.6709077594       18.6969337869
 Zn        21.3209477112       18.6774639264       15.9550610019
 Zn         8.1587989893       23.2095542994       13.5013544362
 Zn        13.2425807259       26.6664570902       15.8786766649
 Zn        15.8966990636       29.4626713506       15.9833219820
 Zn        19.0023004491       32.0939997987       16.2129167007
 Zn        26.5685007749       10.6230571930       23.8002021976
 Zn         7.9058524304       21.3130728525       16.1991282900
 Zn        10.6145523990       23.9594180470       15.9600869327
 Zn        15.9801963409       26.6775229436       18.6105999023
 Zn        18.7596448626       29.3809732503       18.6172631440
 Zn        21.4767100597       32.0322274771       18.6880999068
 Zn         8.0635606676       18.6684626979       18.6004094613
 Zn        10.6266170288       21.4012673142       18.7535577790
 Zn        13.2634097204       24.0270971629       18.6797731058
 Zn        18.6790119386       29.3079719345       23.8661499731
 Zn        21.3086486156       32.0980930055       23.8672988513
 Zn        29.3827976836       21.2378970720       21.3972308367
 Zn         7.9827428089       18.9327083439       23.8658607479
 Zn        10.6177574010       21.4730265803       24.1068185921
 Zn        13.3309229049       24.0453246104       23.9541929330
 Zn        16.0608391283       26.6589578336       23.9561094500
 Zn        21.3927199638       29.2233583349       26.7402131349
 Zn        23.1238919552       31.8440278121       26.5140639505
 Zn        21.3189832363       15.9684664650       13.2422846985
 Zn        18.6711128406       21.3297197023       15.9545717846
 Zn        21.4009478717       24.1100468343       10.5516508337
 Zn         8.1516828061       16.1299203197       26.0252538334
 Zn        10.6251744191       18.5268416195       26.8333540618
 Zn        13.2497350772       21.1679077696       26.7563948585
 Zn        16.0497681940       24.0287994117       26.7486320313
 Zn        18.6085633802       26.5071548253       26.7473847427
 Cl        22.4465498762       14.5142598887        6.6327193439
 Zn        20.9767064997       12.8368626694        7.6643928269
 Zn        23.8497285790       13.5716859112        8.3199222354
 Cl        20.1048664504        6.5949305626       22.6071734206
 Zn        13.0890232335       18.6071056793       29.3027360440
 Zn        15.9639660746       21.4088723984       29.4564347106
 Zn        18.5868874778       24.1001419736       29.3889004492
 Zn        21.3284605888       26.7406446947       29.5399807188
 Zn        26.4944892178       16.4665875663        8.0649137031
 Zn        28.4731873391       19.4247195590        7.8249532443
 Zn        21.4064805920       13.4324946134       26.7439342901
 Zn        13.5715524952       16.2209288823       31.6061159923
 Zn        16.1336123843       18.8442612225       32.0846471064
 Zn        18.6738666663       21.3900478277       32.0989715993
 Zn        21.2380279590       23.9427264492       32.1116631753
 Zn        23.5415737651       26.4258497648       32.0036290114
 Zn        13.1734748321        7.8305920525       18.5974676027
 Zn        18.6092457310       18.6783416784        7.9071357315
 Cl        13.8758069288        7.3082150217       16.5251111226
 Zn        18.6763713269       24.1006094241       13.2475622937
 Zn        21.3285841311       24.0445763380       15.9626675930
 Zn        17.9435949341        7.7541281021       13.7333702250
 Zn        24.0234464119       24.0250939330       18.6845285900
 Zn        15.8728603973       10.6811112724       18.5284153463
 Cl        10.7733667185       28.5261609906       11.6472482895
 Zn        26.6747270613       24.0342548224       21.4085285100
 Zn        10.6102803823       16.2043422360       13.5007409260
 Zn        18.5963487793        7.9806001463       18.6120465324
 Zn        26.8301224228       13.4806623630       10.7874954026
 Cl        22.6232312006        6.5786147506       20.1304400665
 Zn        23.9591087701       13.3364894134       23.9488687494
 Zn        23.9579722445       21.3226590994       15.9790631328
 Cl        19.9699587407       33.4251301723       22.6705171442
 Zn        26.7453609919       15.8941604738       23.9513766294
 Zn        18.7706512674        7.9047292415       23.8570849790
 Zn        18.5211129548       10.6189234638       15.9549057185
 Zn        18.6090514702       15.9762404960       21.3286754218
 Cl        19.9958899650       22.4830897984        6.5544615477
 Zn        18.8382217815       23.9471145091        7.8300658404
 Zn        32.2596873252       17.9416852353       26.2652597120
 Zn        24.1059269803       26.7429505632       16.0499285036
 Zn        21.4871057271       10.8528235329       29.2960537731
 Zn        20.9936856236        7.5822640506       12.9172374440
 Cl        17.3018365327        6.5622744051       19.8452875052
 Zn        27.3089393528       11.5257082355       12.6826548941
 Zn        29.2081372364       13.9026828888       13.3489858042
 Zn        31.8481112616       16.9572640983       13.4894710955
 Zn        32.0907861113       18.5349588314       21.3247957468
 Cl        17.9427334069       25.4157994083        6.2670878281
 Zn        26.6593249307       15.7865182380       29.1323246317
 Cl         6.4696776320       17.7058513957       25.3209304876
 Zn        13.6596150147       32.0015389780       17.0189646515
 Zn        26.6618923648       23.9539163723       16.0516562827
 Zn        26.6613032019       18.6902438655       15.9752743646
 Zn        21.3876773155       13.0919631033       10.6954665538
 Zn        29.3075100372       26.6636544592       21.4077850171
 Zn        21.3952425952       10.6901708654       23.7940982087
 Zn         8.1562321977       26.1762015338       16.2067168119
 Zn        13.3362499972       29.2944813611       18.6033540804
 Zn        16.2902040002       32.1011006206       18.8377046367
 Zn        21.3279998073       18.6670958435       21.3845743294
 Zn        21.3890774189       13.2491987673       15.8979315741
 Zn        27.1642140915        8.7979867549       20.4956964381
 Zn        29.3090364237       10.8527540038       21.3201542068
 Zn        15.7855763787       13.4137577199       10.8644873083
 Zn         7.9086141712       24.0357712446       18.8432805154
 Zn        10.5361389544       26.6706186200       18.6056753786
 Zn        16.2194304037       29.3144797514       21.3897143031
 Zn        18.6723147208       31.9348398378       21.4773121657
 Cl        22.5157174529       19.9878507400       33.4703682576
 Zn        13.2566295560       21.3910375940       10.4686607089
 Zn         7.9781983548       21.4750160431       21.3979132652
 Zn        10.6932803650       24.1314147445       21.4859409967
 Zn        13.3197805469       26.5788841602       21.3891463340
 Zn        19.5016497023       31.1981625638       27.1724783694
 Zn        23.8727966187        8.1614948686       13.9108505837
 Cl        15.0328233918        6.4864023517       22.7174518628
 Zn        31.8491108977       13.8308725080       16.2022125234
 Zn        16.0626239153       24.0191095241       10.6051049994
 Zn         7.8181413251       22.0553291458       26.3334960270
 Zn        10.9435185224       24.2095566073       26.6651642828
 Zn        13.5050789984       26.8331675189       26.5105273581
 Zn        16.1897342410       29.3847756116       26.5044511661
 Cl         6.5798563356       20.0538903977       22.5374041621
 Zn        29.4494579969       21.3940853820       26.8266302506
 Zn        20.5785411672        8.8026769968       27.1607390957
 Zn         7.5840061163       19.0014477610       27.0845646630
 Cl        26.1621166907       32.7650141924       16.5947198545
 Zn        13.4195747133       24.2038410869       29.1337251445
 Cl        19.1884663148        6.6099729125       12.1192968646
 Zn        18.5238453426       29.1420249297       29.2988888544
 Zn        16.0439853934        7.9041126787       21.1613024835
 Zn        11.5140881427       20.7336549768        7.8267480562
 Zn        12.8329323638       19.0855024374       32.3397731925
 Zn        13.7423562772       22.0526067654       32.2585882749
 Zn        15.7968029998       24.0268103527       32.0894148198
 Zn        18.5854453067       26.7486506538       32.1841499058
 Zn        13.5881482048       23.6261224434        8.0718790317
 Zn        18.6116538531       18.6805330712       13.2438930271
 Zn         7.9965173770       24.1029851207       24.2955153949
 Zn        13.4162865016       13.2595728000       18.6786129144
 Zn        26.4189894205        8.0633914716       16.9370923903
 Zn        32.1652862784       11.6840713646       19.0988053532
 Zn        18.6798789347       26.8426673475       10.5395607233
 Cl        23.4722219460       13.9840032294       32.8464877833
 Zn        13.4932588301       29.3838280321       23.8643276243
 Zn        18.6207442950       10.6275510314       21.3004820493
 Zn        13.1837944062       18.5955848389        7.8253138927
 Zn        24.0321359789       21.3192407708       21.3989407491
 Zn        31.2755847168       27.0883568828       19.4953321828
 Zn        21.3193559383       21.3923960492       13.2450709729
 Zn        26.8369541369       26.5085645152       13.4958833921
 Zn        15.7908805682       10.9317209163       13.3396779859
 Zn        18.5357593828       15.9715063349       10.5514304902
 Zn        10.7873011449       18.5999696839       10.7033312645
 Zn        15.9778884998       21.3829525770       13.2445769757
 Zn        15.9815669067       18.6863802403       15.9768453753
 Zn        18.6086252064       13.2604406869       18.6052794494
 Zn        18.6870819297       13.3331133026       24.0235829488
 Zn        21.3240360824       16.0403972064       24.0271387007
 Zn        24.0484041606       18.6741070471       24.0427861265
 Zn        26.7468037444       15.9779927965       18.6101491175
 Zn        15.9649750781       15.7995673794        7.9104729644
 Zn        15.3999112306       27.3424657967        8.7361221817
 Zn        24.0312099382       23.9646901999       13.2564294621
 Zn        21.2986062464       10.6272676247       18.6122797603
 Zn        29.3758373734       15.8793809059       21.4143466046
 Zn        24.2004542912       26.6674452481       10.8738348338
 Cl        22.3291329588        6.4849604436       14.6599758590
 Zn        18.7488580027       27.1680576793        7.4143511360
 Zn        11.6872912360        7.8242068906       20.8964611681
 Zn        20.6598922843       28.4861711236       32.1736248475
 Zn        19.3513554259       11.4497799733       32.1659302383
 Cl        33.4410379447       22.5911825259       19.8445192201
  S        28.1639254510       15.0293415422       11.7618331161
 Cl        15.2556999255       22.6509543466       33.8788375542
 Cl        28.3869827601       28.4517274608       29.3166070923
  S        31.2513145382       27.9268362491       21.6716147930
  S        27.8949911723       20.0357993296       11.9481138519
  S        12.0799293735       31.2304526011       18.3912135455
  S        17.3541667674       22.7016319047       14.5769699289
  S        25.3048963072       12.0480344761       22.5550705686
  S        20.0000413989       20.0053196963       14.5712780328
  S         9.3177954966       17.4687875187       12.0225684555
  S        14.6444653273       17.3105549628       22.7524163540
  S        28.1358515722       14.6752172274       17.2348917425
  S        22.6233519011       12.0355833126       19.8875976740
  S        27.9852663903       22.5896120182       20.1328617425
  S        17.3512658204       20.0042001355       22.7253204835
  S        18.4014438993        8.8807567003       28.0094078039
  S        17.3176354603        9.2156787957       22.6065376573
  S        14.6106122033       19.9404785216        9.1502089634
  S        17.3021356343       17.3565409196       20.0177231893
  S        19.9672517270       11.9242700585       17.2217223255
  S        22.7145093785       28.0137110333       14.6388836205
  S        12.0083627354       30.6031410155       22.5625257768
  S        28.0277300061       12.0922087678       19.8921539195
  S        20.0520006301       22.6596718928       22.6867596886
  S        17.4517379712       27.9405420642       25.3016388811
  S        13.6193265567       24.1107024750       31.3450044981
  S        22.7159603332       25.3558522042       17.3075327602
  S        12.1560707816        8.9569306371       22.7339976394
  S        28.0273657010       17.2823549456       25.3764284993
  S        28.0933230720       19.9362726659       22.7934495215
  S        14.7487364243       25.3454429957       25.3105342216
  S         9.3940547883       11.9880041888       17.4815661917
 Cl         6.4734992265       22.4733183881       14.7949062007
  S        25.3758857912       20.1172515263        9.1432123077
  S        22.6144472629        9.2299869990       17.2675030419
  S        17.3273402514       20.0307251398       17.3269502126
  S        17.4290936514       27.9845516263       19.9128197552
  S        17.2960047551       14.6469642494       22.7080933103
  S        12.0564508391       20.0476458863       11.9554076558
  S        28.0894104713       17.2707849182       20.0276661189
  S        14.6420316561       14.7470442480       14.6903834156
  S        25.3957623723       14.6723017525       14.5499039994
  S        17.2116466797        9.2312913813       17.2366928451
  S        25.5012271690       28.1066893273       17.2311730059
  S        25.3804421830       25.3792528567       25.4515292905
  S        12.0428172077       17.4603851278       14.7264936960
  S        28.1585566257       17.5584375815        8.9777058745
  S        14.3308133420       12.1371955819       12.0729403945
  S        17.3353287163       25.3740695175       17.2518335580
  S        19.9624067800       12.0374179165       22.5691736148
  S        22.6837899071       14.6377880420       17.2433525974
  S        20.0684922217       28.0933646818       17.2218139131
  S        22.7263975692       22.6573759617       30.8495860439
  S        19.9765828799        9.2681729606       19.9610265948
  S        25.3752793108       22.6748459462       22.7637549542
  S        14.6791139259       25.3359286847       19.9777445134
  S        14.6776704088       11.8686638659       22.7171443130
  S        20.0377228839       12.0877093792       28.0297200150
  S        22.8373778669       30.7955644963       17.2990667682
  S        25.3427036635       17.3995094253       11.8337132078
  S        25.3222954439       25.5120141663       30.8897867178
  S        11.8972612601       17.1306452882       25.4887730220
  S         8.8514940031       17.3255380442       27.7652487997
  S        22.7109207941       22.6460352334       20.0203919384
 Cl         6.5695274430       22.7758125685       20.1596763407
  S        21.4637678199       10.9807234892       31.4896998774
  S        25.0531837409       28.1454677806       28.2476352037
  S        14.6294414730       25.3481775504       14.5468882701
  S         9.2352011756       17.4042191458       22.7315314302
  S        30.9289434446       15.0269253571       14.4519491728
  S        22.8005178773       14.5862509948       28.1229009039
  S        22.7554920865       22.7867665482        9.2026542909
  S        14.9011649772       14.7483802167       30.7392701390
  S        25.3488710078       19.9296296208       20.0788935373
  S        22.6060762656       12.0389635839       25.2742189482
  S        11.9311181396       17.5459046003       31.0267352844
  S        25.4734131005       19.8399305715       30.9586582672
  S        17.3500498261       25.4371538294       11.8790195755
  S        22.6885549785       17.3550006165       25.3805890697
  S        17.3060411215       20.0187328000       11.8647600617
  S         9.0052310636       27.8973678801       17.3359608733
  S        14.9698259788       30.5673309179       19.9247192019
  S        20.0362400969       14.6269389599       14.6106781660
  S        27.9458547973       22.5912888108       14.6959205945
  S         9.2400129816       22.7428350038       17.4241148166
  S        20.0124493393       20.0007068137        9.2166987558
  S        18.5776199671       28.9605224182       31.4970386114
  S        14.5755417776       20.1520019422       30.9515057849
  S        28.0406607969        9.3779520473       22.5047877509
  S        17.2281914744       28.1357905425       14.5922391104
  S        22.6817420810       17.3163517075        9.2202321023
  S         9.2565372099       20.0739737512       20.0579228256
 Cl        12.7896009946        6.0140767466       20.0581142522
  S        12.0912954669       11.9736057344       20.1141774513
  S        11.8118490326       20.0020600209       28.0927504876
  S         8.8330347397       21.7054147098       11.9992105546
  S        30.7830055675       22.5687342846       22.7420396554
  S        27.9138079049       28.3563105500       25.5141163250
  S        12.0310051502       14.5893942793       22.8024140819
  S        28.0700230487       22.4825064396       31.0463021117