    1259
 i =      108, E =    -38435.0327254732
 Cl        20.2984384366       43.3448712349       20.4103784724
 Cl        25.9985559586       43.2830909019       25.9584675562
  S        40.5183292701       17.4440319534       26.0624887804
 Cl        43.3983807094       20.4225990408       25.8647391257
 Cd        33.2819080623       21.6234759264       41.8533915619
 Se        20.3087137608       34.4727545247       28.7965358539
  S        23.0523962741       37.2844752083       28.8787192464
  S        25.9031217208       40.3665495277       28.8496608453
 Cl        28.8259166875       43.2682043668       28.8068538687
 Se        20.2926094281       31.6753952263       20.2705742759
  S        34.3291148897       40.3977905549       31.6819038232
  S        11.3984747281       25.8154891867       17.1489830628
 Se        23.1307943942       31.6995617864       23.1307431954
 Cd        36.0270584567       21.8870747031       16.0605425351
 Se        23.1578655836       34.5664889278       20.2741128609
 Cd        33.4324993027       41.9286351552       21.6229926291
 Se        25.9852349233       17.3737538283       28.8428749665
 Cd        10.9887436423       30.2136094115       16.0630652979
  S        31.5302344494       14.6781303578       20.4153654793
 Cd        16.3093585307       35.6861568722       16.2399211252
  S        34.5341443547       17.5421456359       20.4256771760
 Cd        21.7834970350       41.0148457120       16.0500933800
  S        41.1978669776       30.3030669556       16.1397878763
 Se        23.1695540290       25.9323000257       17.4318031266
 Cl         8.6745275972       28.7538375038       23.2094018769
  S        11.6079344002       31.6901432783       23.1630549412
  S        26.1102972045       37.3303494094       20.2138916062
  S        17.6378918612       14.5769522709       34.6025895927
  S        20.4577597865       17.5528924825       34.5252584873
 Se        23.2139805439       20.3211571934       34.5767628503
 Se        26.0295690926       23.1706959261       34.5454305527
 Se        28.8566924130       26.0097293195       34.5934068859
 Se        31.7132674523       28.8352626956       34.5922539922
  S        34.4666971202       31.5625324702       34.4725583646
  S        28.8045308447       28.8211964569       37.2734223308
 Cd        41.7602104975       27.9655588471       16.5618890689
 Cd        10.2243002136       27.2213962494       18.8700258158
 Cd        13.2316646633       30.2214420705       18.8734267451
 Cd        16.0632160103       33.0332447470       18.8764725261
 Cd        18.9426917276       35.9354472984       18.8824994199
 Cd        21.7127946715       38.7650929552       18.8176382539
 Cd        24.7182223468       41.7691326660       18.8216543010
 Cd        27.0338397682        9.7427335918       15.2215597708
 Se        17.4217285139       20.2814536557       28.8172373490
  S        37.4156534638       34.6061902798       34.3665658546
 Cl        26.1352381357       43.4082828278       31.5373391328
  S        11.6498422757       23.2454660169       37.6458559858
  S        14.4060880059       26.2785313257       37.6789780624
  S        17.4145421840       28.9236194171       37.5037001690
  S        20.0728644715       31.9106694525       37.6143123818
 Cd        41.5089692404       16.0578717465       21.7911812033
 Cl        23.0112582265       17.4019808634       43.3315554001
 Cl        25.8580890900       20.4310112472       43.3932005086
  S        31.5494077678       31.5417670525       37.3333971187
 Zn        24.5524840004       33.1214641978       21.7086101723
 Cd        10.0762391563       24.5294622758       21.7066162815
 Cd        13.2213877315       27.3725218714       21.7146809182
 Zn        16.0562977782       30.1912323013       21.7916012080
 Zn        18.8857258157       33.1123677994       21.7162037051
 Zn        21.7977227959       35.9436437328       21.7918492422
 Cd        24.6170693102       38.7752931996       21.6509186201
 Cd        27.5203150523       41.8588874371       21.6373984185
  S        20.4385809751       37.3284971771       20.4501574182
 Se        20.2755301500       23.1361443940       28.8643916659
 Cd        36.1877846004       13.3059087641       24.7164824533
 Cl        28.8895943380       23.0835093977       43.3759245863
 Cl        31.5078427403       26.1709792091       43.3815179035
 Cl        34.8739591561       28.7210007007       43.1017605372
 Cd        10.1506937002       33.2876072027       30.3757024966
 Cd        35.6032973277       23.7934653484       42.1784417112
 Cd        33.1906396117       15.8922565959       13.6393707623
 Cd        13.1489593363       15.9030835813       21.4655611630
  S        20.4328655761       14.4913432587       37.2914555079
 Cd        13.1556637074       36.0936032003       30.5328779199
 Cd        10.0706125132       21.6423321553       24.5289750180
 Cd        13.2246941639       24.5351143511       24.5446363990
 Zn        16.0474590007       27.3759936363       24.5588362016
 Zn        18.8177177174       30.2716498485       24.5518330772
 Zn        21.7107731630       33.1171378551       24.5518048371
 Zn        24.5586642833       35.9508330130       24.5521178474
 Cd        27.4536725311       38.7567768225       24.5127408384
 Cd        30.3544099217       41.8688047158       24.5190761428
  S        23.1711259426       40.3745944853       20.2166657156
  S        23.4384080387       17.4998737293       37.4519410067
  S        26.1106689402       20.2969369758       37.2702225952
  S        28.9124618678       23.0832379344       37.2851536442
  S        31.7428904911       25.9119661780       37.3309179468
  S        34.5132580966       28.5683191454       37.4632391559
  S        37.4640187974       31.3121979161       37.4732595729
  S        25.9067699428       14.6601024181       20.2453795981
 Cd        30.1232435520       15.8938707124       10.9094756713
  S        23.0580269074       34.6641385333       37.4891293910
 Cd        15.9649755685       38.8455882634       30.5332271020
 Cd        10.1608467826       18.8880491644       27.2978450630
 Cd        13.2183166452       21.7048362736       27.3852959764
 Zn        16.0485040498       24.5559901365       27.3777105383
 Zn        18.8133732078       27.3780752072       27.3807441020
 Zn        21.7168537230       30.2085922128       27.3764327334
 Zn        24.5487511980       33.1142914997       27.3769293886
 Zn        27.3748465662       35.9462104587       27.3713354867
 Cd        30.2713255713       38.7541705954       27.3031879122
 Cd        33.1840004473       42.0215795357       27.3839177498
 Cd        39.1826630232       21.7195042493       13.6473215190
  S        25.6540268927       37.6870624761       37.5851249820
  S        28.4968135953       40.6816272270       37.5311314275
  S        23.0496417780       17.3348557865       14.4672233039
 Cl         8.6349520298       20.2423169245       31.5517604380
  S        34.3572821265       34.6054280788       37.4226498837
 Cd        18.7189256602       41.8528113556       30.3738758038
  S        23.0532229119       37.5240712906       34.5608904010
  S        25.9268296323       40.5294647529       34.5175095011
  S        23.3026385946       20.2942845837       40.3681131409
 Cd        10.9113043654       15.8875610654       30.1191698425
 Cd        13.2348907459       18.8234140880       30.1986225276
 Zn        16.0531230764       21.7927787483       30.1982107620
 Zn        18.8176577261       24.5534802005       30.2830473068
 Zn        21.7177584026       27.3792096913       30.2170978497
 Zn        24.6139656176       30.2714059154       30.2085820507
 Zn        27.3818052771       33.1240673445       30.2743357516
 Zn        30.1856304407       36.0105499315       30.1965535007
 Cd        33.1220719713       38.8578588840       30.1999824480
 Cd        35.9241013736       41.5085979478       30.2124940280
 Cl        25.8764759677       43.2845679666       20.3599634313
  S        23.0154002768       40.5033650643       31.7767572028
 Se        23.1539267995       25.9653465232       28.8265813152
  S        11.6227067779       23.1610832477       31.7209903290
  S        14.6637438933       26.0800181408       31.7438197005
 Se        17.4805964328       28.8004364331       31.6530427788
 Se        20.3542998075       31.5840783231       31.5973545572
 Se        23.1361576154       34.4608792531       31.6169958202
 Cd        15.8907775859       18.8946486092       21.6276604105
 Zn        18.8941728722       21.7769854190       21.7973071508
 Cd        13.6400898331       15.8884417438       33.1875787677
 Cd        16.0589753603       18.9495368382       33.1081263215
 Zn        18.8908329587       21.7232238760       33.1816886507
 Zn        21.7211047655       24.5624077273       33.1182397965
 Zn        24.6030545987       27.4475274634       33.1135503183
 Zn        27.4414810531       30.2892335423       33.1192664281
 Zn        30.2070859344       33.1891474131       33.1087992499
 Cd        33.0271135815       36.0418746325       33.0389232549
 Cd        35.9353685462       38.8610156480       32.7721698069
  S        23.1781530956       14.6769205465       28.7980690428
  S        23.4474455199       14.4419248675       40.6711092307
  S        26.0617073795       17.4432844520       40.5196618161
  S        28.9695103869       20.2095803531       40.5013229504
  S        31.7403619382       23.0958270909       40.4571923802
  S        34.7453017216       25.8323522541       40.6832373994
  S        37.6631639440       28.4804607903       40.5840530417
 Se        20.2651349854       28.8433361712       23.1335264036
 Cd        15.8085528447       27.2141213246       12.9786294834
  S        37.2675960234       20.2919335312       26.1170581094
 Zn        21.7242199604       24.5502412894       21.7190547354
 Cd        16.3116227901       16.3099191112       35.7075662342
 Cd        18.9673174032       18.9603494347       36.0588406457
 Zn        21.8042966143       21.8030155488       35.9541828969
 Zn        24.6176379994       24.6219195363       35.9439997739
 Zn        27.3805938917       27.4415900121       35.9494520274
 Zn        30.1951955872       30.2080932935       35.9456770000
 Cd        33.0347499266       33.1158117273       35.9347550437
 Cd        35.6819239427       35.7132730200       35.6889178381
 Cd        18.8676735594       30.1592645043       13.1432405138
 Cl        28.9802029160       43.3199572325       34.5611890190
  S        14.5349003752       34.5102103173       23.4303899521
 Cd        19.2082665651       10.3999031498       32.7828018034
 Cd        33.1653202714       21.7093889792       13.2122150048
 Se        26.0061268912       28.8232092554       28.8115488795
  S        25.8418587129       37.2611323103       31.6601443611
  S        28.6819820524       40.3465282376       31.6664322470
 Cl        38.2054819271       34.7120119010       38.2114617507
  S        25.8888322356       20.2490555707       14.6377547437
  S        28.8222926370       23.1649718946       14.6572459854
 Zn        24.5485959394       27.3794486924       21.7064769394
 Cd        19.2379447198       16.0488280672       38.8606327959
 Cd        21.7920142286       18.8740871611       38.8541547845
 Cd        24.6502617802       21.7320156661       38.7573396719
 Cd        27.4583175580       24.5428906978       38.7673585649
 Cd        30.2759331727       27.3863527266       38.7749674479
 Cd        33.1148483769       30.2060057464       38.7644806346
 Cd        36.0988461837       33.1887956087       38.3614530707
 Cd        21.7983734088       33.1200747908       13.1376138345
  S        31.7414285664       26.0716672037       14.6471891918
 Cd        10.1428884318       21.6449346139       18.6278765991
 Se        28.7752301257       20.3002246085       28.7966219402
 Cd         9.8224567087       16.3773514934       23.8028555365
 Cd        13.0506866139       18.7983037900       24.5267171355
 Cd        24.7742046896       36.1744081275       12.9759889316
 Zn        15.9866580732       21.7126367211       24.5420114989
 Zn        27.3760510120       30.2049143515       21.7167337749
 Se        31.6096507932       23.1887833062       28.8132716215
  S        14.4531838560       14.4566526821       19.9539390793
  S        17.3676604618       17.3664803331       20.2403166882
 Zn        30.2007236259       33.0352871451       21.7882971758
 Cd        21.7843151316       16.0607301181       41.5023365733
 Cd        24.5562056807       18.8155312565       42.0268306026
 Cd        27.4566395928       21.6371134781       41.9222427462
 Cd        30.2815477346       24.5298267763       41.9277258518
 Se        31.7134536871       17.4250737797       23.1581672479
 Se        34.5907075073       20.3153337340       23.1823142748
  S        37.2811819804       23.2227678017       23.2379865361
  S        40.3854057426       26.0791167711       23.1560971025
 Cl        43.3725262776       28.9051618691       23.0929005175
 Cd        33.0393902654       27.2938212799       41.8418349611
 Cd        36.0313031815       30.1203600058       41.0913436806
  S        37.5174622745       23.0556310667       34.6612106913
 Se        20.3804310469       20.3564777546       20.4193485717
 Se        23.2065725790       23.1533869577       20.3330416666
 Cd        35.9371939432       10.9873443511       21.7102089091
 Cl        19.7161756574       14.1412195325       40.8232669087
 Cl        28.6180774209       17.9522637292       43.7317970942
 Cl        32.4995956977       19.4362938536       42.7153586045
 Cl        33.7438589821       23.2459639836       43.7666177253
 Cl        37.3176356575       25.0821951958       43.5238810384
  S        11.6129180025       20.2517269962       28.8254641900
 Cl         9.2815286441       32.4220455672       32.5122870862
  S        31.6973491838       28.8360380036       40.3903636272
  S        23.1733472885       11.6321923603       31.7475523360
  S        40.3915784941       28.8351774706       31.7036221912
 Cl        43.3581281398       31.5602367733       31.7127470451
  S        20.2560068415       37.3174090180       26.0839890069
  S        34.4913272533       37.5841282318       34.5253873440
  S        25.9290394094       23.0798097115       11.6130122498
 Cl        32.4847277745        9.2622094562       32.4753468029
  S        34.4399093020       34.5257825254       31.5439436414
  S        14.4792231328       37.5464441620       32.0219986012
 Cd        13.0595940304       24.4676252189       18.8018305953
 Zn        15.9882563791       27.2949838600       18.9018109330
 Zn        18.8852117453       30.2052938530       18.8107762089
  S        23.1217614579       40.3566073551       26.0086427366
 Cl         8.2846823987       23.3192704883       18.0775361736
 Cd        36.8551442308        9.9960100721       24.8753511465
 Cd        30.4387974164       38.8499265602       21.5571856765
  S        37.4918026401       37.2902387151       31.5782448056
 Cl        19.4928201480       42.7095408148       32.5646210162
 Cl        43.3128203834       26.0083440500       26.0480467184
 Cd        21.7128785339       13.2202859852       33.1812537780
 Cd        21.5494594173       18.6396947596       10.1491055120
 Cd        24.4644863461       21.6428223836       10.0682854658
 Cd        27.3772864346       24.5500011589       10.1602787892
 Cd        30.2964484492       27.4564602839       10.0732958942
 Cd        33.3660037562       30.3496205597       10.1504766835
  S        40.6803668831       25.8200479567       34.7458896089
 Cd        33.1215235735       13.2279104759       21.7098202586
 Zn        18.8808966203       24.5472034749       24.5551282001
  S        26.0700044714       23.1270199914       40.3546797895
 Se        34.5593137907       25.9768857643       28.8820447900
 Se        26.0200582342       25.9724312282       20.2863609866
 Se        28.8106560342       28.7743626183       20.3154227139
 Se        31.5960800206       31.5906903549       20.3768087253
  S        34.6383010130       34.5880293010       20.2265851885
  S        37.5191887593       37.5252015919       19.9510531602
  S        11.4018337592       26.1094163233       34.8504428205
 Cd        33.0974168096       36.0361047078       21.6245727461
 Zn        21.7072895338       27.4338111256       24.5471716626
 Zn        24.6392879487       15.9798717972       33.1001942635
 Cd        21.4601535161       15.9002336265       13.1482415275
 Cd        24.4708322912       18.8035290779       13.0419776870
 Cd        27.3740800522       21.7006262611       13.1608963364
 Cd        30.2952998140       24.6127306371       13.1554884393
 Cd        33.2056004802       27.4709421966       13.0632367903
 Cd        36.0880494801       30.5228094616       13.2143934155
  S        14.5047428968       28.9034543540       34.6652328660
 Cd        36.0221419555       16.0591010066       21.8847835881
  S        11.8331670626       20.0538397737       34.4883950252
  S        14.5756011026       23.3590802615       34.4721938232
 Se        17.4870205032       25.9616602531       34.4987027462
  S        26.0965684542       14.6567039301       31.7492128094
 Zn        24.5540762151       30.2780151118       24.5491667082
 Se        20.3449259174       28.8145906525       34.4564523470
 Se        23.1591922543       31.6402036194       34.4935212471
 Se        25.9745913702       34.5009744527       34.5009629577
 Zn        27.3762147315       33.1186419716       24.5479896692
  S        34.6113959660       31.8198679492       40.2196032184
 Zn        27.3880043902       18.8885455222       33.1054007343
 Cd        21.4645441352       13.1514239095       15.8998580626
 Cd        24.5465837611       15.9010864718       15.9083335342
 Zn        27.2989988313       18.8953518687       15.9734196772
 Zn        30.2018777035       21.7897334382       15.9872506557
 Zn        33.0988808399       24.6350536649       15.9787092851
 Cd        36.1123761675       27.3866847857       15.9665642919
 Cd        38.7809291202       30.5229301236       15.9724918141
  S        17.3648642803       31.7717806172       34.6060131143
  S        14.3474976664       31.8907130531       31.9013505561
 Zn        30.2744056115       35.9473312580       24.4730296407
 Cd        33.1102416377       38.9243417504       24.5328801532
 Cd        35.4437912361       41.7566969836       23.9768340606
  S        28.5085966250       37.4561551190       34.4824349636
 Cd        32.8397856593       19.1350497709       10.4061649675
 Cl         8.7227054501       25.9738836191       26.0078502713
 Cd        15.2974496530        9.7383184491       27.0322655311
 Cl         8.7884519101       25.1156494051       14.3849658794
  S        11.6523670354       28.6751321636       14.3542943675
 Se        28.8065536860       31.7198391387       34.5816771643
 Cd        21.6300611370       10.1518747201       18.6329372577
 Cd        24.5286862521       13.0460753865       18.7952221359
 Zn        27.3581131719       15.9746294867       18.8891776665
 Zn        30.2785136697       18.8888418958       18.8790156138
 Zn        33.1862617281       21.7806316014       18.8854848872
 Zn        36.0287912958       24.6342438418       18.8937470109
 Cd        38.9339266437       27.4568207630       18.8957160079
 Cd        41.9281975835       30.3579696603       18.5616422076
 Zn        30.2066177402       21.7923592502       33.0444597159
  S        14.4927677834       31.4966938901       14.7055786399
  S        17.4724936322       34.4980202396       14.3757507187
 Cd        35.9416118215       21.7154751481       10.9171728263
 Cd        36.8605812168       24.8802749046        9.9920555905
 Cd        36.7023568184       27.0325165150       42.2593475273
 Cl        28.8015519550        8.6738142647       23.1864773857
  S        31.6605335970       40.3976045863       34.3313627257
 Cd        30.2030864324       18.8235619184       13.2304945228
  S        37.2741252675       28.8059376878       28.8203023742
  S        11.4222798945       14.2649628020       28.4711052786
 Cd         9.7405293170       36.7017187010       24.9671866033
 Cd        24.5353053392       10.0700748898       21.6370900675
 Cd        27.3833719393       13.2174858432       21.7088836237
 Zn        30.2055216332       16.0532773513       21.7966768199
 Zn        33.1864325488       18.8887021702       21.7219571170
 Zn        36.0140500355       21.8049967397       21.8075602560
 Cd        38.7662022083       24.6912588469       21.7753349782
 Cd        41.9265723994       27.4621778865       21.6393160893
 Se        28.8058795992       17.4833196270       31.6520332377
 Cd        15.2983929808       42.2571995887       24.9662670178
  S        28.8240484474       14.7007738037       23.1806998832
 Zn        21.7232901834       33.1066848291       18.8114279940
 Cd        36.0295678162       38.7735998656       21.4684317681
  S        14.4445672731       23.4471670511       40.6729122456
  S        17.4427253750       26.0631485837       40.5186889744
  S        20.1989407194       28.9678792988       40.5026573874
  S        23.0429669554       31.7790696799       40.4408701219
 Zn        24.6381490978       36.0097361237       18.8925535910
 Cd        27.5292216773       38.9201927198       18.7420909294
  S        14.5380509137       17.4509853223       28.5458147796
  S        21.5411732529       10.7505004898       16.1922064390
 Cd        27.3899086310       10.2204071117       24.5574876739
 Cd        30.2931188598       13.2106973986       24.6201382163
 Zn        33.0974472944       15.9833889086       24.6352578369
 Zn        36.0251570844       18.8926339798       24.6310853269
 Cd        38.7677300138       21.7374103713       24.6926786942
 Cd        41.8406202421       24.6190601538       24.6239483675
 Cd        32.7888759788       10.4029594040       19.1411572532
  S        31.7023078159       37.2577082139       25.8598172099
 Cd        30.3806281251       41.8525227207       18.5683549082
 Cd         9.9967977046       24.8670989896       36.8583306232
 Cd        21.6191687845       33.3620892493       41.8514183952
  S        25.8334344252       34.8357745058       40.6022817626
  S        28.6723300593       37.6464561603       40.3484541750
 Se        28.8048382156       31.6355686150       17.5054104684
 Zn        33.1036776276       24.6155789446       33.1026649891
  S        20.5006590404       20.4981771578       37.3653728834
  S        14.4630567022       28.4963553659       11.3193255491
  S        17.6685085006       31.6488999528       11.6035159907
  S        20.2324540485       34.6311641297       34.6013441249
 Cd        36.1919222958       24.7132473552       13.2968841150
 Cd        30.2984156180       10.0790490743       27.4571577495
 Cd        33.2026636220       13.0655265826       27.5223165315
 Cd        36.1109147080       15.9703157632       27.3901589829
 Cd        38.9305293472       18.8872372509       27.4593501876
 Cd        41.9246991574       21.6328754958       27.4572910424
 Cl        26.1821137973        8.6191066684       20.4297622000
  S        34.5730994298       40.5221961278       25.8928184387
  S        20.3272246922       34.3127384139       11.5740917287
  S        23.4708332344       37.5275910327       11.3319843746
  S        11.6563428001       28.8739078791       26.0432949381
 Se        17.3908745900       28.8446648455       25.9922760711
  S        14.4894473957       20.4321705345       37.2913833003
  S        17.4980690823       23.4350184082       37.4489794795
  S        20.2948437281       26.1072929713       37.2676832702
  S        23.0641880043       28.9190441100       37.2890563671
  S        25.8746551458       31.7455284823       37.3408497616
 Cl         8.6244399308       20.4359315485       26.1823554661
  S        11.6512812380       23.0799709040       25.9391374755
  S        31.7231858198       11.6196925226       23.1599681506
  S        14.5752406985       17.6300774680       34.6027024345
 Cd        33.3708539863       10.1470802680       30.3538188830
 Cd        36.0960829825       13.2136171351       30.5299615680
 Cd        38.7786627430       15.9740462484       30.5213134883
 Cd        41.9273673738       18.5483407333       30.3552712536
 Cd        38.8635641494       16.0543584240       19.2795219166
 Cl        37.8334964204       40.8315611433       32.2853413977
  S        28.5754037615       34.4797701661       37.4195951777
  S        31.4965447782       37.2950059475       37.5051428210
  S        28.8617199608       26.0085169018       11.6090716549
  S        31.7811555898       28.8820291415       11.5320035907
 Cd        23.7979473472       35.7029459617       42.0933464640
  S        20.4106499840       37.4736853332       14.6854601698
 Zn        36.0209125000       27.3541315978       33.1024762187
  S        10.8043794477       21.5168216614       16.2109487812
  S        14.4045641606       25.6476319548       14.3150399816
  S        17.5011693521       28.4992665894       14.5449408481
  S        20.4879330821       31.4876395708       14.6033456383
  S        23.4448441461       34.4931133557       14.5385258481
 Cl        19.4576404287       32.5065104988       42.7179719837
 Cl        14.6813157832        8.4583099340       25.0942558979
 Cd        15.8065103395       13.1308860563       27.2098956362
 Zn        18.8974813206       15.9733392067       27.3525587694
 Zn        21.7199100708       18.8126182054       27.4415225784
  S        28.8175492357       11.6060075741       20.2613638250
 Cl        23.2680680686       33.8890770373       43.7302425441
  S        26.3382386662       37.5743151916       14.3094437023
  S        30.4740886120       41.1799423946       16.1533195891
  S        11.7774615529       17.3263362088       31.8055343940
  S        23.3127869194       40.3274350099       14.3425557881
 Cd        38.7640200545       30.1987544972       33.1212486002
 Cd        27.0506106343       36.8574021253       42.0022048696
 Cl         8.9998837682       28.6416685312       16.9733691120
  S        17.3470531263       14.4607131993       23.0497171274
 Se        20.3349657060       17.4797263831       23.1942083371
 Cl         8.2406498304       33.7421941222       28.7461824032
  S        34.6683449491       28.8939922977       14.4998479243
 Cl         8.4665264831       14.6521860213       25.0771177662
 Se        20.3054113825       31.6471931918       25.9521218487
  S        17.6601193467       20.3141443661       40.3941197878
 Cl        25.1062447638       37.5635792814       43.2257778456
 Cd        39.0185016112       15.8103874242       24.7181339314
 Cd        42.0266359772       18.8163647177       24.5554448393
 Se        26.0042389463       26.0101556333       31.6905586655
 Cd        41.5979768803       32.7861545596       32.8352454937
  S        11.8347169104       31.8738332983       17.5034464945
  S        14.5099811852       23.0632391613       17.3522463891
 Se        17.4904274010       25.9691719157       17.4989392118
 Se        20.3129757237       28.7729299091       17.3872053872
 Se        23.1795025788       31.6717378936       17.4042020348
 Se        25.9759713517       34.5055756878       17.4822179438
  S        28.9522279756       37.4605367908       17.3203406347
 Cl         8.2388980478       18.2346639471       23.2586281329
  S        31.7637574158       17.3764169767       34.6201291554
  S        20.2930254490       23.3018297458       40.3674892511
  S        23.1229039308       26.0697744365       40.3557248259
  S        25.9523549736       28.8885635570       40.3340116020
  S        37.5435363161       32.0502113180       14.4867287225
 Cd         9.7417648938       15.2212543640       27.0287087881
 Cd        13.1401875674       15.7365294193       27.2104014046
 Zn        15.9799412910       18.8902855741       27.3573449490
 Zn        18.8809134605       21.7111346906       27.4382271231
 Zn        21.7080543757       24.5501491376       27.4424231512
  S        28.8212522826       31.7489407029       40.3610157196
  S        31.9080191739       34.5308411340       40.1816832574
  S        25.6328328269       14.3397224187       14.3194310372
  S        34.4712245229       14.5775855776       23.3628696063
 Cl         8.2864816143       28.6195027057       33.9353457849
  S        28.5410580993       17.4723503610       14.5431644155
 Se        20.2924073991       28.7793051806       28.7802554135
  S        10.7485234643       16.2112350744       21.5425372732
  S        14.3417352620       20.0914276301       20.1021569975
 Se        17.4839044070       23.1599514616       20.3566214496
 Se        20.3191595032       25.9750147262       20.2999798387
 Se        23.1272216354       28.8151648617       20.2797254031
 Se        25.9680181976       31.6629114341       20.3164101304
 Se        23.1558637313       31.6439490347       28.7739811694
 Cl        25.0736384883       14.6703706114        8.4603796202
 Cl        28.7175197186       17.0539424124        8.9036248971
 Cl        31.5853105828       20.2310968293        8.6462264363
 Cl        35.0371721863       23.2860587539        8.9536074034
 Cl        37.5619696786       26.8296240939        8.7717953825