     691
 i =       69, E =    -19660.1090385097
 Cd        20.0958072502       25.8814963793       19.9986593034
 Cd        23.0186069628       28.8607925295       19.9650243303
 Cd        26.0431931759       31.7460013946       19.8803796439
 Cd        28.9541622747       34.8074442569       19.9101925463
 Cl        27.1639548554        6.9224882404       18.4557263435
 Cd        34.9834251323       22.7104076580       29.5048729816
 Cd         9.1838628788       13.7450123802       20.9508196600
 Cd        11.2882882795       17.3505853784       20.0722534424
 Cd        14.2477894176       20.1509309627       20.1389280400
 Cd        17.1445099171       23.0033139333       20.0739294087
 Cd        23.0004541026       25.8699522051       22.9781734115
 Cd        25.8342919068       28.8514557657       22.9437276678
 Cd        28.7784641953       31.8491658531       23.0248487529
 Cd        30.6507714086       34.7413821697       22.5163103198
 Cd        23.4548080715       28.5825023401        8.2586388897
 Cd        17.0180496073       14.2162847856       17.1806411624
 Cl        36.2756765952       18.8100846416       15.7749866846
 Cd        11.4648995856       14.1848430823       23.0710095785
 Cd        14.2501256647       17.1274215014       23.0127915502
 Cd        17.1194121641       20.0766760829       23.0700572664
 Cd        20.0649654829       22.9612172809       23.0186222866
 Cd        25.8953113632       25.8822524823       25.9678482301
 Cd        28.6794602562       28.9362674706       25.9622713135
 Cl        18.5800565401       36.1714640543       21.5506206692
 Cd        20.0214529714       17.1336341112       17.0556564743
 Cd        14.3213419678       20.0218080428       14.1436624510
 Cl        21.5063970395       18.3792712323       36.1083447853
 Cd        14.3200562136       14.0375493033       26.0192962263
 Cd        17.1111137264       17.1045435016       26.0090415450
 Cd        20.0519554918       20.0570657872       26.0004500586
 Cd        22.9814177949       22.9460401413       25.9972769678
 Cd        28.9114151860       25.9245931630       28.9098995356
 Cd        31.2164964519       29.0758169234       28.7064161142
 Cd        13.7031850366       33.8240850697       22.0583895849
 Cd        34.0016220383       25.9271762491       28.4886816235
 Cd        22.8947058879       14.2514320704       22.9018603666
 Cd        14.5520970346       11.3970856716       28.8860158957
 Cd        17.1143416414       14.1828596058       28.9697134034
 Cd        20.1224036450       17.1243851928       28.8810899291
 Cd        23.0156912570       20.0319474232       28.9513820519
 Cd        25.9481002180       22.9505281075       28.9327122418
 Cl        20.5367956401       12.8597273982        6.8808676136
 Cd        28.9563328792       14.3727392929       17.0520564825
 Cd        25.8798802023       17.1563581546       22.9725588995
 Cd        31.8095008947       19.9102267233       26.0431545649
 Cd        25.8881170353       20.0293905124       20.0641602841
 Cd        22.7815307441        8.4618148618       17.1294411923
 Cd        25.9538410798       11.4099761002       17.1363034414
 Cl        36.2007277903       15.9997483701       18.4563701942
 Cd        20.0009759023       14.0766518109       31.8652942620
 Cd        23.0613411983       16.9424786380       31.7861280900
 Cd        25.9501254911       19.9011384516       31.8561264376
 Cd        29.0328089728       22.8374255466       31.7201386011
 Cd        23.0210619810       23.0368401266        8.2960120040
 Cd        34.2968986703       28.7073919816       25.0901127128
 Cd        23.0352417446       14.0257958033       34.7966671442
 Cd        26.0758598937       17.0366987381       34.7039214864
 Cd        28.4194790951       19.2504573995       34.8528131307
 Cd        29.4775417113       22.5365172728       35.0462862894
 Cd        22.9319527854       11.3944924685       14.0098843329
 Cd        22.9754525613       20.0840438735       11.1998764887
 Cd        14.2404790795       11.1764137199       23.0189018749
 Cd        28.8359587074       23.1646227295        8.2027892199
 Cd        31.8254862785       28.6556073226       17.3492821251
 Cd        16.9732013830       19.9861940390       11.2434154383
 Cl        15.3574752441       18.8003224485       35.9092753893
 Cd        25.9366483039       14.1580957116       14.1111726478
 Cd        20.0406563001       22.9962599265       11.1779875585
 Cd        13.9269595277       14.4704340169       14.4053320518
 Cl        15.8703742568       24.7415437610        6.9824576179
 Cd        22.9283198458       17.1485886227       20.0017431427
 Cd        25.9104485491       17.1365667456       11.2960289576
 Cd        25.8064810614       17.0284584610       28.8852723840
 Cd        31.7954852071       23.0044399993       17.3397946477
 Cl        36.0627533539       20.6984652251       30.2757144961
 Cd        17.2746081780       11.1994534981       25.8910881937
 Cd        31.8664982951       14.2619826805       19.9944150543
 Cd        34.7889664535       17.1124692414       20.2407698379
 Cd        20.0458225810       20.0651148708       20.0470938212
 Cd        17.0785000141        8.4177890038       16.8085670389
 Cd        14.7431611964        8.5731726178       25.7116579295
 Cd        17.0358045649       17.2453292860       14.1496203576
 Cd        19.2681947303       14.6366094632        8.1857266267
 Cd        11.1728029737       14.4283068764       17.3421469185
 Cd        17.1340521568       17.1732386230       20.0660132290
 Cd        28.6976556311       23.0766402081       14.1663554067
 Cl        35.9350423458       24.2832042056       27.6004957659
 Cd        28.6780251301       28.8523732358       20.0019671135
 Cd        31.8272864695       17.2811206767       17.1185934164
 Cd        28.8835059406       19.9991989289       23.0668670926
 Cd        20.0602349568       14.1791777976       14.1173929114
 Cd        28.8960465508       20.1185414798       11.1757130541
 Cd        17.1038342772       22.9688883076        8.2875589205
 Cl        12.5814407829       11.6712327433       30.7713178524
 Cd        13.7641628319       28.9838399595       11.4626197251
 Cl        36.7015772287       13.7034661050       21.3915647285
 Cd        20.3112838044       34.9857838058       13.5342567816
 Cd        14.1731575973       17.2328142194       17.1955640478
 Cd        22.9402554974       28.8747043910       14.1271848744
 Cd        26.2002173914       31.4711334614       14.2243349481
 Cd        22.9701316914       22.9472949930       20.0400448738
 Cl         7.6336760952       28.1629212042       25.4062751962
 Cd        14.1874536977       26.0038270826       13.9995383735
 Cd        17.0998247391       28.8473710030       14.1060597666
 Cd        20.0859777533       31.6500900389       14.0047972823
 Cd        23.6943809577       34.8036414749       14.5049354244
 Cd         9.1565576685       20.9968042007       13.7175509978
 Cd        11.4527952690       23.0604310949       14.1920002487
 Cd        17.1329077666       25.8889741213       17.0679204706
 Cd        20.0651130670       28.8470392563       17.0642192467
 Cd        23.0971410895       31.8056343662       16.9960169363
 Cd        25.9384870632       34.6435166748       16.8365819038
 Cd        34.6480979752       23.0779915804       20.0253848538
 Cl         6.9600945138       22.3138699759       30.2628911520
 Cd        11.2639771047       20.0827371788       17.3318621651
 Cd        14.2188217747       22.9910923419       17.1280269413
 Cd        20.1427349728       28.7761367871       22.9178492172
 Cd        23.0156955249       31.7970622691       22.8696280023
 Cd        25.9419766819       34.7784668471       22.7767493479
 Cd        34.6002085965       22.7777137601       25.8931514472
 Cd         8.3090541143       17.3635262362       22.9731380676
 Cd        11.2906891106       20.1267293645       23.0584842642
 Cd        14.1662460122       23.0060973620       23.1043855021
 Cd        17.1708364906       25.8725784899       22.9979489237
 Cd        22.9427067785       28.7982631325       25.8898390933
 Cd        25.7699099783       31.8029988193       25.8970475359
 Cd        28.2804579826       34.4165418500       25.7449826059
 Cd        28.8563708409       22.9445831777       25.9628338159
 Cd        11.4436533724       11.3280892300       19.9912956850
 Cd         8.6469310742       14.3914253302       25.0143667899
 Cd        11.3478717280       17.0254865730       25.9211630946
 Cd        14.1533063433       19.9900775190       26.0406176524
 Cd        17.1086082206       22.9823907157       25.9859369618
 Cd        20.0706172246       25.8547286974       25.9341107682
 Cd        25.9020638042       28.8230060057       28.9328113604
 Cd        28.6151477283       31.4856663277       28.8226517523
 Cd        25.8941657292       17.1530989691       17.0590282313
 Cd        20.0176878865       11.3841326983       28.8294014143
 Cd        12.1473453780       13.6382914095       29.0707551468
 Cd        14.1021572228       16.9233879948       29.0884303780
 Cd        17.0799949939       20.0500295370       28.9195595783
 Cd        20.0220740032       22.9585908259       28.9607555752
 Cd        22.9434909809       25.8684896117       28.9109997388
 Cd        28.8958492292       28.9835927115       31.2325243875
 Cl        12.8213506972       22.4391160221       36.1293250317
 Cd        25.8796948814       14.2947827701       20.0459328677
 Cd        31.8580856234       25.7436316892       14.4196867899
 Cd        14.3419498988       13.6523376523       31.7803818662
 Cd        17.2176739551       17.2005764779       31.6817799659
 Cd        20.0860714491       20.0347917175       31.8432967863
 Cd        22.9670042392       22.9581621611       31.8410818590
 Cd        25.9283676696       25.8891288674       31.7370017792
 Cd        31.6601306546       25.9456130157       25.8851900484
 Cd        23.0816986304        8.4028480324       22.9748439307
 Cd        25.7096916642       11.2860137473       22.9365869040
 Cd        16.9646489332       13.8857478510       34.3566399581
 Cd        19.9755931380       16.9002377567       34.7353447876
 Cd        22.9348085655       19.9048872012       34.7492805244
 Cd        25.8012512619       22.7865553295       34.6358183275
 Cd        28.7445072799       25.7368836004       34.0271023952
 Cd         8.2840225134       30.6651910765       20.5690068544
 Cl        36.1469357412       27.1526486170       24.5416226713
 Cd         8.2379918464       28.9605994774       23.1670797149
 Cd        11.3086837343       31.5730370568       23.0632979311
 Cd        28.8387559099       17.1631946818       14.0905740295
 Cd        31.6172171356       20.0680678719       14.1978283147
 Cd        25.8857382391       20.1090893792       14.1241115028
 Cd        25.7117979438       11.1283800690       28.5959161612
 Cd        25.9047844573       20.1457891211        8.2959545245
 Cd        17.1676171843       14.1640734064       22.9633280293
 Cd        33.8784498092       22.1439357325       13.6995035795
 Cd        25.7776936317       26.2610542415        8.3064909360
 Cd        31.4635158644       16.7869806224       28.8130882703
 Cd        34.7295773860       25.7072324710       23.0116110476
 Cd        31.5577123176       31.7268092370       20.0063754200
 Cl        30.9590540723       12.4004574603       12.3392095918
 Cd        22.8339530467       17.2285129837        8.4052262780
 Cd        25.7138318894        8.3313017693       19.9917113302
 Cd        28.8438747289       11.5254397693       19.9556201335
 Cd        34.8192103692       14.0868188360       23.1052646481
 Cd        28.8804357024       20.0525969492       28.9163858869
 Cd        28.5996858829       13.9270030637       28.6121800690
 Cd        28.8712380491       14.3483538589       23.0275699961
 Cd        34.6535467546       17.0805259266       26.2061258043
 Cd        26.0107278555       23.1430251924       11.2361812664
 Cd        28.7952704636       22.8999633573       20.1359400281
 Cd        31.5700314321       23.2101973863       11.3135286927
 Cl        18.7056771289       21.4076313971       36.1398369273
 Cd        18.0752691931        8.5584027889       28.6394981120
 Cd        31.7669262005       25.7116799896       20.0740962444
 Cd        34.8093968815       20.1250798517       17.3541851433
 Cd        11.5392496877       28.7266689259       14.2705106190
 Cd        13.9386644690       31.2122467369       14.2412228492
 Cd        17.1090273033       34.0222223083       14.5748502131
 Cd        31.8136427244       20.0249738497       20.1578747138
 Cd        22.9538088191       20.0548564656       17.0467131513
 Cd         8.6797503157       25.0788602976       14.3568242051
 Cd        14.1239730881       28.6782268041       17.0968971694
 Cd        17.0820896774       31.6380594614       17.1426624005
 Cd        20.2420355057       34.5967709936       17.1538605142
 Cd        28.6493236238       11.1827305074       25.6588131242
 Cd         8.2687034990       22.9838476266       17.3619723411
 Cd        11.2469959510       25.8082855070       17.1337444603
 Cd        17.1774001806       28.7562603916       20.0737946336
 Cd        20.1280192059       31.7583370740       19.9964312291
 Cd        23.0326703038       34.7121748643       19.9692542841
 Cd         8.4275706761       19.9979669528       20.0007866605
 Cd        11.2534594635       23.0366363227       20.1687980871
 Cd        14.1770393349       25.8474341206       20.1168961942
 Cd        20.0551135814       31.7842884333       25.6975796471
 Cd        22.9401828159       34.8036570234       25.6546128974
 Cd        31.7678205056       22.9021663780       23.0417751621
 Cd         8.4334050745       20.2428383121       25.8697918809
 Cd        11.2293256410       23.0857890292       26.0554443958
 Cd        14.1954404120       25.9973670833       25.8829154256
 Cd        17.2118375860       28.8418813088       25.8472468614
 Cd        22.9938120223       31.6128591596       28.8214014118
 Cd        25.0026268028       34.3850762681       28.6746109783
 Cd        22.9564117407       17.1148860850       14.0980408821
 Cd        20.0674487825       22.9693959138       17.0521602237
 Cd        23.0042294364       25.9951462550       11.1703032112
 Cd         8.9070314249       17.0904362456       28.3671484290
 Cd        11.3526897311       20.0231941727       29.0224277336
 Cd        14.1346270378       22.9324624489       28.9146329926
 Cd        17.2072667082       25.9624778023       28.9024163703
 Cd        19.9731639232       28.6928986961       28.8777256260
 Cl        24.2247292041       15.3916376441        7.0923036338
 Cd        22.5559245237       13.5544450708        7.9895252684
 Cd        25.7621226093       14.3125348207        9.0004700092
 Cl        21.6128192874        6.8054373793       24.2456461035
 Cd        13.9977340974       20.1692472228       31.7035513949
 Cd        17.0566728162       23.0571327102       31.8548743126
 Cd        19.9433859375       26.0192767471       31.7823859888
 Cd        22.9650892754       28.8957900393       31.8404929526
 Cd        28.6677853198       17.4606422808        8.6817765952
 Cd        30.8189996151       20.7594806972        8.3081014541
 Cd        23.0487374691       14.2791206036       28.8800140763
 Cd        14.1979285707       17.2076528305       33.8364013227
 Cd        17.1948435555       20.1397325332       34.6419665502
 Cd        20.0127571677       23.0158550408       34.7381824100
 Cd        22.9247174428       25.8961820730       34.7238294601
 Cd        25.6177264483       28.6610227708       34.3348185411
 Cd        14.0689250748        8.2573592673       19.8864070055
 Cd        19.9791236421       20.0627497128        8.2857604902
 Cl        14.8640564058        7.6518278005       17.6414686642
 Cd        20.0771117627       25.9273144045       14.1343672774
 Cd        23.0066847237       25.9024315044       17.0683261704
 Cd        19.3233101336        8.2732348922       14.4729026636
 Cd        25.8784777783       25.8607058981       20.0603091519
 Cd        16.9755760971       11.3037916994       19.8774500926
 Cl        11.9423401028       30.8298345968       12.5540493348
 Cd        28.7642615808       25.8704333630       22.9844811193
 Cd        11.1482633278       17.3781124900       14.4021473791
 Cd        19.9927748194        8.3383288252       19.9372051255
 Cd        29.0008599370       14.1840954552       11.7829699491
 Cl        24.4600390411        6.8650564135       21.4983484139
 Cd        25.8215486299       14.1688765198       25.8216966753
 Cd        25.8767481887       22.9547395112       17.1250798577
 Cl        21.4408335936       36.2208214454       24.3125844050
 Cd        28.8381074357       17.0166420375       25.8632709823
 Cd        20.1209071649        8.2073480679       25.6260806969
 Cd        19.9116701442       11.2540755468       16.9883631449
 Cd        20.0080271344       17.1380958404       22.9942766202
 Cl        21.3848180984       24.2509951602        6.8771843585
 Cd        20.1363055040       25.8825849751        8.2830857203
 Cd        34.7980015679       19.3157207567       28.5530505569
 Cd        25.9974831105       28.8379092523       17.1774817492
 Cd        23.1076026467       11.3751979137       31.6956167793
 Cd        22.7176897144        8.0775334170       13.5258440449
 Cl        18.5110910061        6.8419341616       21.2682183763
 Cd        29.0853004104       11.8557879616       14.3102556135
 Cd        31.5076607775       14.4420906147       14.1842502026
 Cd        34.3955751210       18.0592176427       14.3398354255
 Cd        34.7192108148       19.9957003950       23.0746375540
 Cl        19.0919113398       27.5490634627        6.6845836865
 Cd        28.7050210923       16.7725217503       31.5158582342
 Cl         7.0035428951       18.8007145910       27.5411858211
 Cd        14.3162402718       34.2524129795       17.9226213577
 Cd        28.8435921398       25.8290068895       17.2020022493
 Cd        28.8185727301       20.0973949775       17.1531126137
 Cd        22.8533107493       14.0280678645       11.3114997959
 Cd        31.5337063660       28.8379440774       23.0630927460
 Cd        22.9892153898       11.2284608681       25.6750688782
 Cd         8.5936861033       28.2982342907       17.3382088308
 Cd        14.1957282468       31.5242495708       19.9907957355
 Cd        17.3159393202       34.7132766620       20.0302582688
 Cd        22.9568731649       20.0490392234       23.0142915433
 Cd        22.9484182775       14.2015888692       17.0644289380
 Cd        29.3328347331        9.2247838340       22.0219635834
 Cd        31.7421877468       11.4654785078       23.0076846257
 Cd        16.7803540332       14.3435905415       11.5218380341
 Cd         8.2792330431       25.9468357404       20.2865723066
 Cd        11.1839989285       28.7930196274       20.0396018155
 Cd        17.3340516440       31.7626240088       22.9739802876
 Cd        19.9582397050       34.6389290585       23.0181828679
 Cl        24.2760263685       21.5634409822       36.1213963790
 Cd        14.1654491106       23.0651242430       11.1625506428
 Cd         8.3440563455       23.0360759113       23.0747165801
 Cd        11.2985208436       26.0497871648       23.1854340063
 Cd        14.1803453439       28.6826135742       23.0588472945
 Cd        20.9291169474       33.9002221172       29.3068783426
 Cd        25.9309861891        9.0552555590       14.5501978863
 Cl        15.9834609570        6.8185987420       24.5041918545
 Cd        34.4337082328       14.7646631775       17.2706439571
 Cd        17.1928868418       25.9998359694       11.2492856808
 Cd         8.2429547419       23.6747844158       28.5377160119
 Cd        11.5548695048       26.2091417088       28.8222407547
 Cd        14.4221618695       29.0734213276       28.6467206575
 Cd        17.3193719291       31.8685624729       28.6082521025
 Cl         6.9059554905       21.4259565953       24.3584761903
 Cd        31.6698604851       22.9251324246       29.0202577723
 Cd        22.1304325500        9.1080092885       29.2695420278
 Cd         8.0115414593       20.2930851882       29.4771531683
 Cl        28.1588576725       35.4135454442       17.6740158620
 Cd        14.3112872888       26.2073310225       31.5221268765
 Cl        20.7060603215        7.0032538885       12.7501347330
 Cd        19.8918143831       31.6146044575       31.6956890628
 Cd        17.1000995434        8.2595255186       22.7525890924
 Cd        12.1904827298       22.5179933321        8.2990476114
 Cd        13.5225591582       20.3931807809       35.0573024395
 Cd        14.5957848744       23.7000216652       34.8334639777
 Cd        16.9235138101       25.9279557665       34.7074917742
 Cd        19.9938002896       28.9170981141       34.8172568353
 Cd        14.4798618901       25.8269928283        8.7286067356
 Cd        20.0328400309       20.0544877193       14.0762988809
 Cd         8.3852402000       25.9313748750       26.2181448220
 Cd        14.3293549078       14.1775731424       20.0028754147
 Cd        28.7239649645        8.7700374557       17.9183226980
 Cd        34.7646638033       12.3913754451       20.5013810588
 Cd        20.1450272663       29.0536471070       11.2921587953
 Cl        25.2321725794       14.8682032101       35.5352415084
 Cd        14.3990097679       31.8462885207       25.6904242640
 Cd        20.0177659138       11.2312778096       22.8585171245
 Cd        14.0715214331       20.0503768447        8.2011064617
 Cd        25.8945376859       22.9256177200       23.0390565520
 Cd        33.8230085495       29.3290613629       20.9821923030
 Cd        22.9882599957       23.0077495980       14.0909201480
 Cd        29.0497337510       28.6238620190       14.3862514062
 Cd        16.7906564436       11.6022455334       14.2209611208
 Cd        19.9161784895       17.0953862586       11.1785808579
 Cd        11.4168719309       19.9973782707       11.3043372176
 Cd        17.1270872510       22.9802626159       14.1143958934
 Cd        17.1461688995       20.0898453643       17.1169389098
 Cd        19.9918037727       14.1800762621       19.9736027816
 Cd        20.0808985506       14.1950052168       25.8894993616
 Cd        22.9679564751       17.1438730643       25.9109374150
 Cd        25.9239119994       20.0241215195       25.9733377705
 Cd        28.8779695515       17.1969926208       20.0791721433
 Cd        17.0465278250       16.9714660151        8.3336708324
 Cd        16.4338694603       29.9882667310       10.0330386239
 Cd        25.9678798836       25.8304906456       14.1427980057
 Cd        22.9029640873       11.2990611368       19.9787377734
 Cd        31.7606587875       16.9818813732       23.1544923203
 Cd        26.1271426881       28.7661982522       11.4981077740
 Cl        24.2928379845        7.1220374339       15.4282432747
 Cd        19.8743185402       29.5326254754        7.8915666901
 Cd        12.3563184419        8.2858198704       22.4781407419
 Cd        22.3821829877       30.9043462092       34.6819400078
 Cd        20.6178998949       12.0861994468       34.6997167426
 Cl        36.1900034883       24.4450816142       21.5004696675
  S        30.4450762249       15.9864657411       12.6019848653
 Cl        16.3421747216       24.2945112764       36.5529115554
 Cl        30.6791264895       30.9371583694       30.6723618711
  S        33.6256943313       30.2656414468       23.3649993845
  S        30.2229744779       21.5981863884       12.7336385320
  S        12.7733118420       33.6147223463       19.6800099363
  S        18.6106668267       24.4401392130       15.5867034186
  S        27.2926903759       12.7730998911       24.2896511321
  S        21.5203110551       21.5126285677       15.5431040448
  S         9.8173504455       18.7916440704       12.7963831242
  S        15.6597728688       18.5982412043       24.5357021080
  S        30.4091835169       15.7980235370       18.5911587306
  S        24.3510633258       12.8014887626       21.4010805331
  S        30.2621857963       24.3462316872       21.6211072723
  S        18.6068335915       21.5331683520       24.5251762844
  S        19.7752541027        9.2702546329       30.2181275662
  S        18.5624042928        9.6845222946       24.2801358325
  S        15.5987837889       21.4872342801        9.6776970861
  S        18.5729911926       18.6436564083       21.5476028764
  S        21.4365749347       12.6902840626       18.4483103896
  S        24.5120822490       30.2362145586       15.6315427804
  S        12.7943068054       33.1777451534       24.2673145633
  S        30.3199198323       12.9028380228       21.4806725302
  S        21.5619302647       24.4091191037       24.4806247772
  S        18.7244263488       30.2785624248       27.2910112228
  S        14.5356685780       25.9955388339       33.9324888200
  S        24.4760887493       27.3405324720       18.5608306803
  S        12.8973300932        9.5494252763       24.4663724481
  S        30.2450934497       18.5028482886       27.4188917256
  S        30.3803770318       21.4377142766       24.5800047140
  S        15.7710922390       27.4098832746       27.3413406182
  S         9.8561370725       12.8112839565       18.7605914946
 Cl         6.8007149074       24.3003893763       15.7902209193
  S        27.4120959187       21.6135573861        9.6810434474
  S        24.3987196847        9.8463942198       18.4379605621
  S        18.6103999610       21.5541249344       18.5815874998
  S        18.7038313620       30.2509855114       21.4415196423
  S        18.5646744004       15.6657761866       24.4689432790
  S        12.8426650067       21.5375478172       12.7183885026
  S        30.3834294773       18.5383328244       21.6290861994
  S        15.6164877877       15.7834293028       15.7121064376
  S        27.3655160146       15.7049379999       15.5709360028
  S        18.4983036395        9.7574366589       18.4576272063
  S        27.5195232450       30.3715572893       18.4246373513
  S        27.3568541531       27.3448947745       27.4521214780
  S        12.7597718010       18.7429976710       15.7377828842
  S        30.4450034540       18.7691038431        9.6322395468
  S        15.2216954413       12.9751664196       12.8812991618
  S        18.6294369355       27.3539277913       18.5370024295
  S        21.4473284398       12.7420270290       24.3138024943
  S        24.4071263724       15.6899653030       18.5192967766
  S        21.5849006035       30.3616841482       18.4631497040
  S        24.4923560316       24.4537592777       33.2956695746
  S        21.5136085307        9.7362897551       21.4183822640
  S        27.3680566415       24.3980075831       24.5112942888
  S        15.6906462257       27.3204448097       21.5337261297
  S        15.7691652203       12.6225399155       24.4361926466
  S        21.5530553700       12.7808971710       30.2820437036
  S        24.5241791366       33.2948005889       18.4844682652
  S        27.3808160744       18.6645668010       12.6277223113
  S        27.4881080939       27.5638684629       33.1040062237
  S        12.6924903309       18.4769755046       27.5070939068
  S         9.5538378898       18.5708014807       30.1592906513
  S        24.4536259057       24.3745678626       21.5362065002
 Cl         6.8517466675       24.5276602651       21.7417548327
  S        22.9744214506       11.6010764995       34.0927438937
  S        27.0883062426       30.4232995945       30.4207180557
  S        15.6757489794       27.3451472343       15.5971866915
  S         9.8270673567       18.6339661736       24.5688022180
  S        33.3570423874       15.9982578768       15.3982167979
  S        24.5746239908       15.5116689799       30.4126091597
  S        24.4958194622       24.5306628521        9.7013611763
  S        15.7388845819       15.6459394735       32.9674365042
  S        27.3622826678       21.4259615434       21.6050673590
  S        24.3314140920       12.7301816679       27.2647399786
  S        12.5636612201       18.8899089565       33.4260236641
  S        27.5443911870       21.3505093138       33.4656414845
  S        18.6858770871       27.4566271708       12.6797639341
  S        24.4290523221       18.5829575693       27.4188437379
  S        18.5585741058       21.4987113635       12.6042344441
  S         9.5670641958       30.1433644747       18.5909422404
  S        15.9382195627       33.0538503914       21.3069374664
  S        21.5090902217       15.6707394048       15.5898742876
  S        30.2860846530       24.3322995923       15.7540859942
  S         9.7301924925       24.5212208034       18.7413636049
  S        21.5185569861       21.5167450578        9.6982115186
  S        20.0410902873       31.3484592737       34.0953208189
  S        15.4949722342       21.6382891397       33.4489540123
  S        30.2610372804        9.8675558134       24.2189827911
  S        18.5930074723       30.3435737224       15.6053041057
  S        24.4773473503       18.5677616638        9.7377168693
  S         9.7572767628       21.5371867384       21.5900477737
 Cl        13.6765697024        6.3569707331       21.5749132503
  S        12.8740722743       12.7297850822       21.5376281630
  S        12.5709719567       21.6753633025       30.3839782452
  S         9.3609404382       23.3600480731       12.7791679919
  S        33.2234225019       24.3926693436       24.5762237379
  S        30.1491768146       30.5849698287       27.1149474732
  S        12.8891360610       15.5938127988       24.5361425012
  S        30.4150176424       24.1254378224       33.4779050795