    2839
 i =       42, E =    -88070.5625262355
 In        42.0544936506       23.9501093165       47.8288445613
 In        48.0700752288       48.0746766492       29.9441801648
 As        43.7980016656       40.8754855274       10.3496375227
 In        42.0699972632       42.1345278006       36.0444295183
 In        48.1073833347       23.9599313898       17.9322783295
 As        46.4309418838       22.5025956617       31.4515999174
 As        46.4255105665       22.5237072913       37.4668160947
 In        50.7777852073       20.9875132690       36.0485032916
 In        48.0673701269       24.0227560919       23.9405825291
 As        46.4794941127       22.4244239869       43.5279797157
 As        46.8212424187       22.1364296826       49.5632100607
 Cl        46.2798646787       25.8915833298       10.2140514198
 In        50.6163413448       20.8212029733       42.1370844345
 As        46.6019612541       25.4788281180       16.4180187832
 As        46.5456009891       25.5122946325       22.4534990359
 As        46.4570993807       25.5392127912       28.4829699074
 As        46.4459021059       25.5130310660       34.4400597481
 In        42.0547592053       42.0612064457       30.0363856726
 In        45.1000590784       20.9120262352       17.8658261343
 As        46.4389839695       25.5262116243       40.4717880500
 As        46.5764556138       25.4323279092       46.5375735582
 Cl        46.3022111527       25.3125971253       52.0928988856
 Cl        45.7450827688       29.1637491444        6.8834345240
 In        45.1841029121       36.2936491959        9.2974241381
 As        46.5551699867       28.4792139007       13.3693264455
 As        46.5013260770       28.4979192547       19.4133187726
 As        46.4400821861       28.5371309079       25.4857988563
 As        46.4646496649       28.5485666652       31.4468035107
 As        46.4496941300       28.5121734442       37.4462814446
 As        49.4352633162       37.4835436007       31.3582350160
 In        47.9106491826       24.0491018182       30.0292348517
 As        46.4989497622       28.5163233787       43.5014887387
 As        46.5656904432       28.4554883414       49.5284015573
 As        46.5678244278       31.5826054758       10.3692974410
 As        46.4966360171       31.5222572890       16.4290517573
 As        46.4641608650       31.5280490449       22.4650763355
 In        51.1123254164       24.1086536139       20.9870710758
 As        43.5562200138       40.5883449663       16.4245552103
 As        46.4639484030       31.5209419145       28.4649904782
 As        46.4760140951       31.5087074104       34.4113545291
 As        46.5540605617       31.5384792133       40.4817620704
 As        46.5957748355       31.5809895723       46.5263359179
 Cl        45.7655856364       30.8399946584       53.0301281614
 In        50.8612229740       24.1880715314       27.0874062655
 In        42.1365546940       42.1344858152       42.0543823027
 Cl        46.2996576768       34.7066050731        7.8054111664
 As        46.5894001161       34.5925393309       13.3645873038
 As        46.4358904213       34.5320084182       19.4417560713
 As        46.4288758848       34.5342518796       25.4536172896
 As        46.4622123859       34.5074031301       31.4466256737
 In        50.7074899412       24.1204309599       32.9987381077
 As        46.7761338804       49.6005703013       22.0703814799
 As        46.5676222838       34.5169338493       37.4494003367
 As        46.6385697800       34.5537319949       43.5025249993
 As        40.5217106842       31.4826875781       16.4568206038
 As        46.8249119222       37.8915944132       10.3091373710
 As        46.5106512483       37.6000086754       16.4103908625
 As        49.6550942654       37.4884998641       37.4104790605
 As        46.5756862791       49.6034216157       28.3608443060
 As        46.4413731790       37.5355193024       22.4235064161
 As        46.4736118055       37.5257921918       28.4196448777
 As        46.5630723235       37.5457842131       34.4709066686
 As        46.6333204620       37.5528371313       40.4883055745
 Cl        46.5226313849       37.1360198824       46.4959489106
 In        51.1143609352       21.0765003127       24.0258428042
 Cl        46.2833653295       49.7905665624       34.0946712174
 In        44.9383595130       30.0389695843       26.9880671489
 Cl        46.3375885163       40.4047414077       13.6074222819
 As        46.5411802405       40.6221664678       19.3622786655
 As        46.4233421078       40.5359328333       25.4213999150
 As        46.5415404620       40.5162714563       31.4559382614
 As        43.4921581808       40.5297845280       22.4122976647
 As        46.6375367961       40.5775564446       37.4970818466
 Cl        46.6156298207       40.2687737939       43.3495212135
 In        42.0442842635       27.0005740346        8.8863115417
 As        46.7398601702       43.7690941163       16.2155431025
 As        46.5022143398       43.5622977688       22.3803362347
 As        43.5140621637       40.5467558052       28.4952338243
 As        46.5220824241       43.5709287687       28.4596800514
 As        46.6178414733       43.5493566932       34.4758361956
 Cl        46.5875007057       43.4106238511       40.2393195943
 As        43.5662246954       40.5750636239       34.5217149837
 As        40.5094386632       31.5970842102       10.5023825518
 In        42.0518045583       45.0220972470       20.8982412297
 Cl        46.3289928902       46.3328687990       19.5208021620
 As        46.5433536206       46.5692843662       25.3724451886
 In        47.9007243840       24.0329738252       35.9824385200
 Cl        46.2951778996       52.1569447588       25.2457713588
 As        46.6097449225       46.5901136948       31.5126732281
 As        40.4949871298       31.4892349835       22.4677924982
 In        47.8380231068       23.9533801366       41.9792881265
 In        50.8732119126       48.1558455735       26.6705952413
 In        50.7872997315       41.9819208372       26.6739733194
 In        48.1436298990       23.8609687823       48.0701156982
 In        45.0942353800       36.0468765576       14.8943039177
 In        44.9374262412       36.0506856311       20.9157719335
 As        46.6332432032       19.4953057558       22.4237803306
 As        43.4943511046       16.4897285351       34.4824577805
 As        40.5181013529       34.5235099754       13.5171110768
 As        46.5085065105       19.5062351529       28.4323271372
 As        43.5631731243       16.4443338156       40.5143764113
 As        40.4944503292       34.4874146000       19.4613765433
 Cl         7.1451071205       11.1880290728       27.7732160035
 As        46.4252071283       19.5012713669       34.4514803151
 As        43.7534282491       16.2581599088       46.6764161146
 As        40.4814929197       34.5334685283       25.4548653107
 Cl         7.8662461889       13.7134830687       25.2384704188
 Cl         6.9018025703       14.3586268339       30.7168418342
 In        42.0563847356       26.9235565439       14.8930692046
 As        40.4903695678       34.5464318046       31.4765044275
 Cl         7.9559630683       16.6182243277       22.4479599030
 Cl         7.7516475583       16.7800514159       28.1794366802
 Cl         6.8785193099       17.2862175210       33.7022794367
 Cl        43.3386824273       19.7345481082       13.3772915538
 As        40.5346080760       34.5285866367       37.4865710535
 Cl         7.9373849911       19.5382240842       19.4712563417
 Cl         7.8867872135       19.6819150700       25.3514818398
 Cl         7.7020736894       19.7425495404       31.1973106785
 Cl         6.8520246938       20.3141044175       36.6882992897
 As        40.5744587959       34.5906861603       43.4988839184
 Cl         7.9047897668       22.4694861145       16.5669905338
 Cl         7.8972107881       22.4968943817       22.4912117299
 Cl         7.8449586047       22.6049709489       28.3701397764
 Cl         7.6729537497       22.7639756892       34.1948885320
 Cl         6.8531425159       23.3215162553       39.6938727637
 As        40.4919693234       34.4885356629       49.6314923242
 Cl         7.8423804865       25.2982581768       13.6475902017
 Cl         7.8218738482       25.4264965846       19.5217239103
 Cl         7.8582209068       25.5726081658       25.3883933648
 Cl         7.7800873393       25.6462200572       31.3677179619
 Cl         7.6642947273       25.8028900678       37.2304638779
 Cl         6.8507948639       26.3357688230       42.6749232648
 Cl         7.1252271018       27.8374553459       11.1248292838
 Cl         7.7631513616       28.2922836907       16.6581071496
 Cl         7.8251709243       28.3952734623       22.5459680282
 Cl         7.7835774089       28.4968611738       28.5390036787
 Cl         7.7360782537       28.6508400579       34.4035858647
 Cl         7.7459152115       28.8173680116       40.2094084140
 Cl         6.9688406943       29.2399594771       45.7138595063
 Cl         6.9687932190       30.8516787057       14.2368104624
 Cl         7.6711255713       31.2465200812       19.6786089461
 Cl         7.7553370338       31.4364763689       25.5647247827
 Cl         7.7830349280       31.6010919562       31.4768906889
 Cl         7.8072827445       31.6589751437       37.3775118927
 Cl         7.7357495999       31.7605603573       43.2648601896
 Cl         7.1291484129       32.1998172606       48.7995625863
 Cl         6.8738947820       33.7611432565       17.2562014925
 Cl         7.6628513505       34.2664151215       22.6895405760
 Cl         7.7451929015       34.4080563426       28.6295815136
 Cl         7.8366103404       34.4885834064       34.5585771742
 Cl         7.7887368598       34.6045209599       40.4288942156
 Cl         7.8722623162       34.7343093063       46.2667275959
 In        45.1040939941       30.0477497616        8.8923761148
 Cl         6.8592164768       36.7653769542       20.2261459472
 Cl         7.6370967269       37.2660910680       25.7315145980
 Cl         7.7594496403       37.4367782055       31.6033429770
 Cl         7.8179487951       37.5429005686       37.4956977416
 Cl         7.8954976106       37.5294149880       43.3695950015
 As        43.5834417852       13.5098437762       37.5465072850
 Cl         6.8397294969       39.7563544650       23.2597946724
 Cl         7.6574790919       40.2947591248       28.7332807371
 Cl         7.7707432651       40.4707714610       34.5369861986
 Cl         7.8500802214       40.5101169302       40.4586668499
 Cl        43.2492746211       52.2696254357       28.1859560865
 As        43.5142122054       25.5106199517       43.4781845558
 Cl         6.8541840700       42.7577998927       26.2357923424
 Cl         7.7051898483       43.3217034549       31.6954868583
 Cl         7.8840045947       43.4315954530       37.5006491556
 As        43.7470232439       13.2543288348       43.6787654757
 As        43.5591584198       25.3819222699       49.3936852892
 Cl         6.8946210615       45.7689354468       29.1657674383
 Cl         7.8163684093       46.3224011326       34.6573607579
 In        48.2238183665       44.9477491217       20.9090510062
 As        43.5204951588       28.5464140901       10.3398981261
 As        43.5343855817       28.4771093937       16.3991830352
 Cl         7.1235115930       48.8135808707       32.1070457856
 In        47.9907777951       45.0974121172       26.9171095050
 As        43.5271296223       28.5086128414       22.4333166090
 As        43.4424137874       28.5207188895       28.4470921941
 Cl        48.8311160505       52.8565933575       27.7643797686
 As        43.4681473914       28.5193470676       34.4501188296
 As        43.4952059901       28.5422628307       40.4543686045
 In        48.0764999222       26.9915208555       14.8943843329
 In        48.0039264332       26.9985534550       20.9041308087
 Cl        52.0485774687       40.4888316113       19.4638084013
 Cl        52.1302947477       40.3768552670       25.3190329093
 Cl        52.2978408700       40.2927992046       31.1631548912
 In        45.0997714901       20.9785732799       23.8741871166
 As        46.5231502337       19.4132190181       40.5324519480
 As        43.5791369262       19.4441926480       19.4000267378
 As        40.5639449370       37.6031950991       10.5430375298
 In        50.6945795403       24.0254445154       38.9378121141
 Cl        46.3607339386       19.5943005935       46.2919593512
 As        43.5568085194       19.4939017702       25.4005941663
 As        40.5296426720       37.5344006066       16.4462060005
 In         9.0642952652       11.8515570469       26.6745092631
 In        50.6241121949       23.7823330541       45.1062286983
 Cl        53.1490267690       33.6869854602       42.6808098099
 As        43.4812054226       19.4966407793       31.4242394184
 As        40.4928581550       37.5227205976       22.4395169944
 In         9.3770862736       14.8958972039       23.6972893310
 In         8.9041714373       14.9699943002       29.7903848869
 In        42.0558639314       26.9844286728       20.9080801852
 As        43.4970845760       19.4830672953       37.4998073767
 As        40.4996327873       37.5536107104       28.4830532396
 In         9.4659373454       17.9335742579       20.8164730765
 In         9.2132377696       18.1000812556       26.7452953565
 In         8.8917954797       17.9474883605       32.8418564751
 Cl        49.8362118581       37.0768059434       43.1824204144
 In        42.0533029018       45.0222978737       26.9927095858
 As        40.5519608429       37.5552840333       34.5090067804
 In         9.3833514331       20.7525748700       17.7821939520
 Zn         9.2088814420       21.0541755565       23.8710193306
 In         9.2096426920       21.0703029362       29.8548778504
 In         8.8870260930       20.9923914342       35.8907111439
 In        51.1035490326       27.0819719433       17.9433394623
 As        40.5780000959       37.5849327300       40.5010433192
 In         9.3085053316       23.7093725360       14.8099789508
 In         9.3018431069       23.9422970067       20.9912875023
 In         9.3019354323       24.1051421222       26.8368099789
 In         9.1313515729       24.1240248453       32.8360897731
 In         8.8896329966       24.0326856659       38.9301649496
 In        50.8581081963       27.1677804203       24.0307362149
 Cl        52.0680528227       37.5288778227       16.5474448111
 In         9.0580135486       26.7547005686       11.7727309061
 In         9.2209855401       26.8379536234       17.9384387782
 Zn         9.1373087645       26.9911831134       23.9521632924
 Zn         9.0648964045       27.0739187976       29.9545122478
 In         9.1369589454       27.1499050323       35.8834761893
 In         8.8956413829       27.0774145886       41.9703627411
 Zn        50.8634993289       27.0729891977       29.9659529974
 Cl        45.6798444092       53.1027043968       30.7136124779
 In         8.9696549627       29.9444944849       14.8838270456
 In         9.1461969718       29.8603424724       20.9946774285
 In         9.2288403555       29.9470757381       27.0635967182
 In         9.2308120091       30.1172059798       32.9124719870
 In         9.2077036155       30.2017804564       38.8613134491
 In         8.9681805196       30.1205838678       45.0294368586
 Zn        50.7954507769       26.9976325125       35.8933390406
 As        43.6179075311       40.5970698061       40.5205550906
 In         8.8921959198       32.9264487636       17.9379747082
 In         9.1381020130       32.9168957886       24.0317979580
 Zn         9.0586977466       32.9975906164       30.0319919064
 Zn         9.1359490220       33.0194507770       35.9691220114
 In         9.2177022077       33.1626434314       41.9758796105
 In         9.0673387168       33.2586428129       48.1445244714
 In        50.7900874651       21.0785788445       30.0401990311
 Cl        43.4158269259       40.2793455894       46.5361352327
 In         8.8888102655       35.9654710933       20.9113919461
 In         9.0633403827       35.8793901788       27.0800397454
 In         9.2200543394       35.8956202077       33.0187908896
 In         9.2976795155       36.0496273227       38.9987075698
 In         9.3727044533       36.2928883222       45.1130229198
 In        42.0524698231        8.8904151923       26.9998861934
 In        42.0602463011       45.1066634707       33.0051080571
 In         8.8861077633       39.0093778338       23.9546418359
 In         9.1363381488       38.9346582447       30.0495010166
 In         9.2213202581       39.0846102709       36.0498766853
 In         9.3093296967       39.2550037234       42.1484333548
 In        42.0527235805        9.2204525230       33.0914888141
 In        44.9342977979       36.0404855628       26.9718542859
 In        48.1530875574       50.9406417022       26.6708297091
 In         8.8910426651       42.0519780885       26.9950568974
 In         9.2121557651       42.0570754570       33.0922226134
 In         9.3066225787       42.2287795145       39.2475317889
 In        42.1561927106        9.3785459111       39.1818245068
 As        43.5636554920       28.5332148292       46.4949150735
 In        42.0711516856       45.1809298361       39.0157001344
 In         8.8989368720       45.1025211682       30.0371266618
 In         9.3090968256       45.1860390296       36.2214532072
 As        49.4065436350       34.6302451613       16.4002157106
 Cl        43.3199803232       28.3077748886       52.2585020409
 In        45.0204946622       36.0525843199       33.0000447009
 As        49.4775489156       34.4343864429       28.4667474128
 In         9.0613547424       48.1624124590       33.1743360626
 In        48.0702462189       48.0778896615       23.7707034849
 Cl        43.3127173670       31.7219021787        7.6781958845
 As        43.5381356205       31.5067066173       13.4252988388
 In        48.1554129927        9.0664759614       33.1783817390
 In        51.1077969494       18.0213711493       26.9991363087
 As        43.4818468514       31.5099689492       19.4536481425
 As        43.4645602870       31.4991738255       25.4450518898
 In        47.9137949758       27.0838985563       27.0101793809
 In        47.9185303494       27.0064411150       32.9275142166
 In        44.9373915384       30.0337300828       32.9333626818
 In        51.1157973911       42.0540924637       32.8426498086
 In        47.9080332810       26.9820039768       38.9278554264
 In        41.9786730511       26.9908682445       26.9191927923
 As        43.5623115781       19.4158507153       43.4903808941
 As        40.5736766614       37.5716525928       46.5662237063
 Cl        11.1874699050        7.1379101867       27.7669822483
 Cl        46.5040482893       22.8264376726       13.4430580595
 As        43.8441324113       19.1571658952       49.5613437572
 Cl        39.6797307570       36.7034671207       53.1393565403
 As        10.2845526386       10.2907547295       25.0578840723
 Cl        16.5943833434       43.4053275660       16.5529301540
 Cl        43.2074852341       22.9369826234       10.1329142913
 Cl        40.4897945115       40.4938868665        7.8589130453
 As        10.3717127842       13.2535207408       22.0807208189
 As        10.4169474500       13.4520096648       28.3382805364
 Cl        10.2831374272       13.7670890247       34.0929436492
 As        43.5726242405       22.4545034904       16.3863116911
 As        40.5938408422       40.6029614947       13.4365651941
 As        10.3746848317       16.2954141173       19.1343505694
 As        10.6028179926       16.5034265032       25.3403441126
 As        10.3935763262       16.4731530017       31.3541524485
 Cl        10.1797453936       16.8330372053       37.1093201222
 As        40.5088493325       40.5320332759       19.4247929978
 As        10.4022960229       19.1513337567       16.1515064817
 As        10.5201452941       19.5740755733       22.4999389417
 As        10.5957762096       19.5371729369       28.3730307964
 As        10.3422356404       19.4953743124       34.3749627963
 Cl        10.2122181114       19.9223878420       40.1564875727
 As        40.4984311107       40.5541199900       25.4505840480
 As        10.3547988811       22.1212626222       13.1693264183
 As        10.5934948187       22.4128122778       19.4173786494
 As        10.5361161862       22.4694496092       25.3416509035
 As        10.5620845397       22.5820792115       31.4002541585
 As        10.3510953754       22.5216994615       37.4147351734
 Cl        10.2360384508       22.9220224814       43.1752336719
 As        10.2791828179       25.1250064020       10.2373921287
 As        10.5868067533       25.3776052401       16.3813840502
 As        10.5118581512       25.5691797423       22.5464294653
 As        10.4316822515       25.6464196271       28.5262510493
 As        10.5206694901       25.5841932475       34.4130980049
 As        10.3565828130       25.5497133693       40.4479046620
 Cl        10.3008338367       25.9559187260       46.2916334266
 Cl        11.1728000299       27.8326293725        7.1228405587
 As        10.4151113888       28.4322550133       13.3575646085
 As        10.5842516892       28.4216605008       19.4508186322
 As        10.4529902527       28.4161860726       25.4308521718
 As        10.4430775012       28.4865624050       31.3769405031
 As        10.5690959308       28.6016478934       37.4124630079
 As        10.3898685502       28.5700837635       43.4832499634
 Cl        10.4971196834       28.9570597106       49.4955740683
 Cl        10.5448141949       31.1962724533       10.4364812624
 As        10.4074834998       31.4715436663       16.4309387682
 As        10.5242152266       31.4282754100       22.4924301181
 As        10.4209003413       31.5804001037       28.6062649182
 As        10.4794230049       31.6100612609       34.5475112475
 As        10.5997148824       31.6074357159       40.4691928483
 As        10.4313855700       31.6224483747       46.5374920729
 Cl        11.1783727152       32.2003761247       52.8098283242
 Cl        10.2809329863       34.1597422164       13.6861126127
 As        10.3759466560       34.4542005264       19.4376731193
 As        10.5191554943       34.4432610934       25.5455767705
 As        10.4698933096       34.3929916910       31.4213309575
 As        10.4805434467       34.4560936364       37.4028054068
 As        10.5909540009       34.6333016352       43.5139673796
 As        10.3116140604       34.9003040579       49.6631707390
 Cl        10.2117953370       37.1441528803       16.7690701368
 As        10.3368778089       37.4517263735       22.4846968438
 As        10.5081455980       37.4358502171       28.5191393968
 As        10.5511791913       37.5012734087       34.5225325315
 As        10.5614179557       37.6168734266       40.5324781646
 As        10.3819303426       37.8945699376       46.7572554477
 In        42.0596318743       11.9256992592       23.9428362855
 Cl        10.1375911811       40.1624276841       19.8629619755
 As        10.3471627222       40.4925784094       25.5059279355
 As        10.5210119247       40.4804141972       31.5475945485
 As        10.5389490084       40.6136357439       37.5799632242
 As        10.3584833028       40.8517810277       43.7672400373
 In        42.0588696639       11.9992619619       29.8903650323
 Cl        10.1932424092       43.2378207765       22.9242271950
 As        10.3617418656       43.5325038089       28.5265532017
 As        10.5773417341       43.5831515211       34.5820008090
 As        10.3760710085       43.8272660315       40.8444433234
 In        42.0550536856       12.1056628295       36.0343736541
 As        43.4447932315       31.5443933950       31.4706055269
 Cl        10.2617818300       46.2839717262       25.9047725889
 As        10.4058846980       46.5707382765       31.5366417551
 As        10.3544096559       46.8105214472       37.8307333175
 In        42.1415683848       11.9449467087       42.1360678100
 As        43.5180899034       31.5305235294       37.4781296026
 Cl        10.4881637023       49.5107936529       28.8806166147
 As        10.2744469257       49.7333994275       34.7962625598
 In        42.1478680522       42.2007930378       11.9348968757
 As        43.5497080638       31.5566634008       43.5024404372
 As        43.5274909455       31.4809564849       49.5865661925
 Cl        11.2011671409       52.8871544590       32.1193071726
 Cl        46.3551410508       13.6766432926       40.3773702862
 As        43.5687646604       34.6421097411       10.5336304959
 As        43.5334885703       34.5486801972       16.4174927796
 As        43.7624757732       43.7374442378       13.2117069437
 Cl        53.1660053748       39.6803162570       36.6531781651
 As        43.5558345617       43.5558863722       19.3987541371
 As        49.4632622874       34.4976679995       22.5256750234
 Cl        52.0633663439       43.4321013054       22.4305429383
 As        46.6066116657       22.4647805254       19.4241877621
 As        43.5597170088       22.4673775036       22.3986686820
 As        40.5259238667       40.5515382849       31.5097990982
 In        11.8393398129        9.0626939083       26.6719134352
 In        50.7802855886       26.9058616351       41.9751441803
 Cl        52.1120767032       37.5554840751       22.4817560877
 As        43.4967610447       22.5381331878       28.4238406949
 As        40.5713514217       40.6007170763       37.5394563919
 In        11.8599955197       11.9266866044       23.7751119811
 In        11.9256621118       11.9472828094       29.9438097389
 In        50.8742395669       26.8269152010       48.1438337130
 As        43.4623244262       22.5125247004       34.4489305394
 As        40.5915473534       40.5945244181       43.5377496397
 In        11.7690023606       15.0618477180       20.9092133129
 In        12.0033509874       14.9594209494       26.9335199285
 In        11.9187505983       14.9644238365       32.9862882367
 In        45.1119616122       36.0614753986       39.0147583465
 Cl        48.8224062212        7.1387431042       32.1045478390
 Cl        40.1550197853       40.1719154629       49.8050368643
 In        12.0064985276       17.8590216984       17.7867125359
 In        12.0990160342       18.0314760530       23.8678149591
 In        12.0028853481       17.9452600894       29.9620117225
 In        11.8509155053       17.9445777798       35.9716798742
 Cl        43.3764247421       16.6040235945       16.5248388755
 As        40.8642900250       43.8284411629       10.3249598896
 In        11.7730356803       20.9905995977       14.9800537196
 In        12.1024512416       20.9197327108       20.9769606510
 In        12.0943310586       21.0688393029       26.8958308912
 In        11.9389831741       20.9794007295       32.9980687630
 In        11.9154685310       20.9835068718       39.0121528616
 In        51.0363292188       30.1216832427       14.8919194424
 In        41.9741238465       27.0067451182       32.9398939925
 In        11.8600144500       23.8004913406       11.8443539747
 In        12.1018540765       23.9452137636       17.9338669988
 In        12.0898391023       24.0247053259       23.9450869215
 In        12.0271956440       24.1147414665       29.8810128574
 In        11.9357241693       23.9629023685       35.9806865550
 In        11.9210778523       23.9548789186       41.9803633430
 In        50.7879834512       30.2021679983       21.0020091257
 In        11.8484054957       26.7495838351        9.0485583472
 In        12.0025492898       26.9977676293       14.8190680175
 In        12.0869366730       26.9273425288       20.9898923948
 In        12.0165932920       27.0075764697       26.9847667928
 In        12.0208579254       27.0793026251       32.9063066237
 In        11.9426399927       26.9861491214       39.0107644914
 In        11.9283262168       26.9961802081       45.0260583591
 In        50.7004485581       30.1277919263       27.0551213724
 In        45.1041155714       17.9417762129       20.8990095746
 In        11.9357730325       30.0235461879       11.8591006185
 In        12.0006991907       30.0373653570       17.8682571696
 In        12.0224495377       29.9485198970       24.0313945504
 In        12.0106705325       30.0330657733       29.9667157498
 In        12.0918576463       30.0562080829       35.8888200428
 In        12.0109273484       29.9673256384       42.0504652436
 In        11.9375426778       30.0422702106       48.0533376793
 In        50.7030984532       29.9503727033       32.8452079304
 In        41.9768026283       27.0615668901       38.9443430076
 In        11.9262794001       33.0750665569       14.8882292964
 In        11.9375112536       33.0144468193       20.9066873219
 In        12.0174583200       32.9303175306       27.0690235951
 In        12.0220021068       33.0079846345       32.9973062658
 In        12.0920911932       33.0829799591       38.9309780053
 In        12.0186684653       33.0075271351       45.0354078810
 In        11.8446918673       33.2551380606       50.8694855896
 In        45.1036128688        8.9698118247       30.0373816008
 In        11.9222809619       36.0491565806       17.8669423729
 In        11.9318331658       36.0388497726       23.9431601704
 In        12.0207149106       35.9593232498       30.0369996191
 In        12.0908488357       35.9728974533       36.0429454515
 In        12.1061102720       36.0611651681       41.9844441452
 In        11.9223976324       36.2085377715       48.0672102095
 In        45.1061287033       36.0562087008       45.0314047673