    1259
 i =       58, E =    -31789.9436587970
 Cl        18.3510012292       44.1732824665       18.4099005094
 Cl        24.4546069149       43.8323104840       24.4574702459
 Te        41.0456791353       14.5224102053       24.7162339638
 Cl        43.8598159236       18.1540475122       24.6526645383
 Hg        32.9106491500       19.4398677576       42.2926111475
 Te        17.9106252047       34.3659876384       27.7728345698
 Te        21.1815372593       37.6241758792       27.7730714919
 Te        24.4008402415       40.9723890256       27.7769501794
 Cl        27.5630519671       43.8314538498       27.5649570594
 Te        17.8637107896       31.1192474197       17.8369124755
 Te        34.0224908593       41.3426140321       31.0928151518
 Te         7.9736775392       24.2139664329       14.6288062864
 Te        21.1697930952       31.1088113365       21.1528631209
 Hg        36.2779369593       19.4777366639       12.9432038777
 Te        21.1542410479       34.4247605305       17.8195748020
 Hg        32.8772237142       42.3119286817       19.3679689680
 Te        24.4842025339       14.6380219930       27.8208146454
 Hg         6.5161044861       28.6726368558       13.8937073645
 Te        31.1711184481       11.2479906199       17.8963166312
 Hg        13.3450641510       35.6172540776       13.1091024900
 Te        34.5367678090       14.5976751949       17.8935261118
 Hg        20.2738361145       42.4645383330       13.8676247999
 Te        41.7278709568       29.7124175486       13.3323534672
 Te        21.2132359223       24.4967899704       14.6212895332
 Cl         5.1176084587       27.5864316938       21.4056231014
 Te         7.9657067049       31.0296028496       21.2744205673
 Te        24.5241231390       37.6949541141       17.8744454751
 Te        14.7991390043       11.2281822086       34.7890302513
 Te        17.8820923728       14.6044744169       34.5407136117
 Te        21.2065085245       17.8873864713       34.4403226844
 Te        24.4886241499       21.2248670992       34.3837606667
 Te        27.8028186625       24.5552556226       34.3764043050
 Te        31.1303963124       27.8827158584       34.4452113642
 Te        34.4329253926       31.2489542568       34.4433157256
 Te        27.7910001353       27.8318374232       37.6994722637
 Hg        42.1740952518       27.0922408504       13.9902744607
 Hg         6.5603829366       25.5918265408       16.5770987300
 Hg         9.5602750498       29.4589949554       16.1944856620
 Hg        12.8793200628       32.7719030680       16.0506948027
 Hg        16.1961618640       36.0958368866       16.0434120794
 Hg        19.4980223148       39.4169974871       16.1774628085
 Hg        23.3584069444       42.4254222009       16.5507373691
 Hg        25.4556264983        6.0052176349       12.0602564654
 Te        14.5647102658       17.8622046838       27.8687831381
 Te        37.7693633173       34.8028848785       34.1982458506
 Cl        24.3432560301       43.8651172832       30.8437913539
 Te         7.4624791661       21.5418435997       37.4430705519
 Te        11.0642943145       24.6583169819       37.8643601936
 Te        14.5973750502       27.8171157242       37.5604498504
 Te        17.6905092799       31.2869279830       37.7748231736
 Hg        42.1211628584       13.5905364547       20.0975247883
 Cl        21.5448375146       14.9595447624       43.8106856742
 Cl        24.6362720680       18.1537496885       43.8687360999
 Te        31.1180783522       31.1882535752       37.7547637211
 Hg        22.8001710562       32.7651837662       19.4859141706
 Hg         6.5529174487       22.5918996164       19.5691320433
 Hg         9.6724021766       26.0753162316       19.5688777855
 Hg        12.9128927398       29.4251888322       19.4964908688
 Hg        16.1969444732       32.7822203402       19.4639216853
 Hg        19.5356393698       36.0787104518       19.4848582256
 Hg        22.8767377606       39.3231397723       19.5392875183
 Hg        26.3771142480       42.4604853914       19.5307708704
 Te        17.8586316599       37.7445285681       17.8136479379
 Te        17.8912054062       21.1806464730       27.8346965779
 Hg        36.2121389771        9.8281139276       22.8309634023
 Cl        27.8786179910       21.1394590405       43.8159691879
 Cl        30.8452953149       24.3968197216       43.8413700288
 Cl        34.3056551954       27.0944834863       43.9260393084
 Hg         6.7174259902       32.9211511014       29.5731595044
 Hg        35.0523082436       22.0206036498       42.4148127686
 Hg        33.1389389560       12.7836018580       10.5949835187
 Hg         9.9694074476       13.0492567122       19.3319164366
 Te        17.7943845557       11.2429052580       37.6995595729
 Hg         9.9519128859       35.9409226777       29.6677364213
 Hg         6.5664505458       19.4940587500       22.6709963444
 Hg         9.6948279926       22.8209630906       22.8538503657
 Hg        12.9731955804       26.1383999872       22.8452011134
 Hg        16.2356847882       29.4817588632       22.7866572996
 Hg        19.5041667811       32.7605161097       22.7832404187
 Hg        22.8416981056       36.0293670121       22.8188940555
 Hg        26.1397581169       39.3109943491       22.8081805461
 Hg        29.4729961650       42.4422385708       22.6425130013
 Te        21.2940262007       41.0344031074       17.9072235640
 Te        21.2327153661       14.6128303935       37.8363157954
 Te        24.5517580802       17.8958489274       37.6931872166
 Te        27.8025436952       21.2294516550       37.6338020000
 Te        31.1050728296       24.5059061743       37.6922404115
 Te        34.4138390847       27.9009435031       37.7657576057
 Te        37.8513484769       31.0558443814       37.8624895880
 Te        24.4922507623       11.3151270466       17.9095433984
 Hg        28.8456403118       13.7608025342        6.6655715260
 Te        21.1522088766       34.3982365413       37.5457801398
 Hg        13.0571747281       39.0433854477       29.6668654315
 Hg         6.6632344986       16.5108992489       25.6869233542
 Hg         9.6938767016       19.5680117013       26.1291080271
 Hg        12.9772626103       22.8535474893       26.1506090951
 Hg        16.2559148032       26.1386963533       26.1348638000
 Hg        19.5279506953       29.4689065202       26.0959529648
 Hg        22.8445913867       32.7506400136       26.1210877746
 Hg        26.1238242136       36.0434780398       26.1201915893
 Hg        29.4336635187       39.3069021844       26.0616803205
 Hg        32.6018142852       42.5719656140       25.6546052594
 Hg        39.9830433321       19.1980029786       10.8658124495
 Te        24.3324550342       37.8765995557       37.9237648582
 Te        27.5325610556       41.4120028201       37.6682523832
 Te        21.1832176647       14.5855728018       11.4669531887
 Cl         4.8250995174       18.3702576543       30.5553517691
 Te        34.1886114261       34.8043285723       37.7787584254
 Hg        16.0733609479       42.2797060619       29.5584288956
 Te        21.1721671832       37.5702921297       34.3856637012
 Te        24.2829480195       41.0512801088       34.4776516756
 Te        21.3791214364       17.9465172442       41.0446424144
 Hg         6.6931551850       13.7468212048       28.8722109045
 Hg         9.5710303544       16.2622718888       29.5367980188
 Hg        12.9226037795       19.5584581980       29.4941062102
 Hg        16.2351156474       22.8136447657       29.4996386264
 Hg        19.5361141685       26.1258521900       29.4497400759
 Hg        22.8712716293       29.4666328840       29.4469298242
 Hg        26.1481785582       32.7648595716       29.4673555490
 Hg        29.3866982940       36.0472467998       29.3871159599
 Hg        32.6606816432       39.4869099546       29.5097749475
 Hg        35.4132600095       42.1256341926       28.9093886475
 Cl        24.6539220829       43.8753522608       18.1749211200
 Te        21.0373449326       40.8678629405       31.1032257800
 Te        21.1984344836       24.4928951058       27.7986437441
 Te         7.9705527796       21.3144749812       31.0665506635
 Te        11.3048483144       24.5396358805       31.1047408790
 Te        14.6288599086       27.8015095926       31.0696762152
 Te        17.9393788022       31.0575122305       31.0426516512
 Te        21.1962033594       34.3698817463       31.0691736716
 Hg        12.9568954492       16.4091629669       19.4867212646
 Hg        16.3068684760       19.5726418049       19.5903565616
 Hg        10.5714538049       12.8102606090       33.1261386984
 Hg        12.8946375065       16.2127611252       32.9433688324
 Hg        16.2235312629       19.5015807473       32.8423453221
 Hg        19.5230723725       22.8550397683       32.7598791893
 Hg        22.8600166016       26.1582118215       32.7445507944
 Hg        26.1773339861       29.5173690141       32.7671028502
 Hg        29.4980278345       32.8526096717       32.7772855366
 Hg        32.8230128047       36.3156698712       32.8289674722
 Hg        35.8220480494       39.4992742872       32.1687993496
 Te        21.2163549530       11.3122185808       27.8186753563
 Te        21.4494507007       11.3305373663       41.4075610833
 Te        24.7009645037       14.5228669637       41.0529894519
 Te        27.9468007584       17.8980442018       40.8737827312
 Te        31.0801337427       21.0448410934       40.8688653435
 Te        34.3972942318       24.2854582396       40.9737657205
 Te        37.5083429684       27.5369940865       41.4870630733
 Te        17.8851133568       27.8108166880       21.1595441194
 Hg        12.5734088502       26.2643408394        9.8133009927
 Te        37.6858145317       17.8914033570       24.5644485913
 Hg        19.5488835744       22.8685164610       19.5477927708
 Hg        13.3546969836       13.3666491181       35.8811807121
 Hg        16.1673247186       16.1728716691       36.3047590209
 Hg        19.6053560868       19.6152571613       36.0434049940
 Hg        22.8652707641       22.8822366725       36.0425930171
 Hg        26.1458126872       26.1829393640       36.0309720007
 Hg        29.4411307330       29.5188550530       36.0846603860
 Hg        32.7839426601       32.9609229941       36.1108208683
 Hg        35.6314260236       35.8983391585       35.6408526977
 Hg        16.3331019982       29.4955350850        9.5139122896
 Cl        27.4341377234       43.8140127187       34.0385252796
 Te        11.2287920970       34.4060392500       21.1068412958
 Hg        17.1401045384        6.4302523814       31.9604848461
 Hg        32.8118264103       19.4990980361        9.5742413552
 Te        24.5065470897       27.8103938808       27.7927112834
 Te        24.4348546476       37.6903518048       31.1083754593
 Te        27.6030936927       41.0459302562       31.0525496915
 Cl        38.3244582050       34.8109507492       38.3291416461
 Te        24.4941761070       17.8741386142       11.3185034561
 Te        27.8161336464       21.1882677968       11.3060353953
 Hg        22.8438512425       26.1516138770       19.5305678719
 Hg        16.8235392576       13.1785699210       39.4892840313
 Hg        19.4830062387       16.3391497850       39.4814016238
 Hg        22.9234275489       19.5706706799       39.3065682665
 Hg        26.1686451021       22.8716320604       39.3156630403
 Hg        29.4243394240       26.1410998027       39.3185764801
 Hg        32.7332099713       29.5462509639       39.4421341259
 Hg        36.1966193422       33.1579228350       38.4221486290
 Hg        19.4753476925       32.6570528314        9.5183611465
 Te        31.1104344241       24.5232418961       11.2996076327
 Hg         6.7104515855       19.3428247330       16.1170471220
 Te        27.7749630240       17.9431416024       27.7825490556
 Hg         6.6056524818       13.9226365427       22.0244293741
 Hg         9.7796307691       16.2513625307       22.7032640418
 Hg        22.7090291426       36.4097659578        9.8020692611
 Hg        13.0145173587       19.5396377647       22.8853883297
 Hg        26.1173586404       29.4590238503       19.5356108549
 Te        31.0705946226       21.2480928706       27.7848357369
 Te        11.3809351346       11.3619411108       17.5742537672
 Te        14.7018009155       14.6810603037       17.9722618550
 Hg        29.4145359552       32.6975586814       19.5790021300
 Hg        20.0803574379       13.5907633835       42.1226643487
 Hg        23.3403187531       16.4087049775       42.5733635275
 Hg        26.3487320663       19.5534722480       42.4458461221
 Hg        29.4612982015       22.6696840837       42.4562703526
 Te        31.1690383084       14.5752558303       21.1814801659
 Te        34.4373028252       17.8822465840       21.2147724359
 Te        37.7114763201       21.2440548310       21.2445580664
 Te        40.9710949132       24.5914198192       21.2016301793
 Cl        43.8198991867       27.8670304877       21.1008984710
 Hg        32.4612195331       25.6853029236       42.3663341308
 Hg        35.2139272691       28.8610286225       42.3459592095
 Te        37.5345537702       21.1946646681       34.4132717493
 Te        17.9536962606       17.9339890136       17.9555533969
 Te        21.2380121988       21.2143674512       17.9335900530
 Hg        35.1197947373        6.5300933285       20.3104217649
 Cl        16.9983893621       11.1212788063       41.3741342154
 Cl        27.8561818958       15.5219284705       44.2046769173
 Cl        31.8474552025       17.2015945644       43.0195983156
 Cl        33.3935984277       21.1976546002       44.2325901341
 Cl        36.8787138358       23.4490123317       44.1878071618
 Te         7.9824857835       17.9456006550       27.7285958637
 Cl         6.0235486694       31.8685130605       31.8131869162
 Te        31.0487243935       27.7378920713       41.0334362935
 Te        21.3202341883        7.9701377755       31.0786962118
 Te        41.0220553265       27.7361552872       31.0662442578
 Cl        44.1758669060       30.5834952488       30.6394308263
 Te        17.8759075315       37.6822386161       24.4947308785
 Te        34.3795692339       38.1144125694       34.3845901068
 Te        24.4520833678       21.1567516064        8.0232344768
 Cl        31.8528053121        6.0075408620       31.8656528189
 Te        34.3936224371       34.5493473233       31.1188003785
 Te        11.3650357511       37.6313413973       31.4184475480
 Hg         9.7345844358       22.6523338554       16.2758803546
 Hg        12.8878729954       26.1344664701       16.2290357647
 Hg        16.2177699759       29.4879356546       16.1566501755
 Te        21.1627449882       40.9751690410       24.5322486384
 Cl         4.7755675190       21.0979517782       15.6034658177
 Hg        37.1672620938        6.0697690069       23.7086887953
 Hg        29.5585041064       39.0204256829       19.4732478928
 Te        37.7582071191       37.7079247954       31.2028318953
 Cl        17.1364779021       43.0107447901       31.7965283307
 Cl        43.8293367165       24.5368842866       24.5384903791
 Hg        19.5200889108        9.5746911137       32.8149783891
 Hg        19.4266996093       16.0681988983        6.7299182040
 Hg        22.6484552594       19.5091862288        6.5508956551
 Hg        26.0796309112       22.9130257988        6.5638112105
 Hg        29.4469062074       26.3752782745        6.5355329175
 Hg        32.8963275122       29.5950755080        6.6935439168
 Te        40.9553706638       24.2837930646       34.4189822942
 Hg        32.8095330262        9.5715664300       19.5311152799
 Hg        16.2604212825       22.8524240693       22.8629754492
 Te        24.5795148485       21.2210027619       40.9774046537
 Te        34.3687178010       24.5513577895       27.8143456985
 Te        24.5093101613       24.4864624978       17.9105432559
 Te        27.7689345494       27.7689906682       17.9247903652
 Te        31.0479737853       31.0499002231       17.9424104690
 Te        34.3021350964       34.3044275646       17.9637365030
 Te        37.6324383750       37.5932776407       17.5208819551
 Te         7.9754856181       24.7649467994       34.3708662443
 Hg        32.5777641475       36.0645647346       19.4828509300
 Hg        19.5378618300       26.1587093498       22.8281856962
 Hg        22.8515188961       12.8980562793       32.7830857048
 Hg        19.3169810453       13.0538759408        9.9696114154
 Hg        22.6959156066       16.2530352612        9.7675932722
 Hg        26.1324158095       19.5500819713        9.6867428528
 Hg        29.4421901686       22.8763814394        9.6738231237
 Hg        32.7259929946       26.3129209584        9.7288380569
 Hg        35.8971466220       29.7046708141        9.9540890684
 Te        11.4475733428       27.8427923095       34.3829977343
 Hg        36.2786603623       12.9400034432       19.4988798529
 Te         7.6283931150       17.9968940152       34.2725161607
 Te        11.2509097443       21.1678944079       34.4489706066
 Te        14.5544307074       24.4802584816       34.4281683090
 Te        24.5378232043       11.3117591853       31.1228658531
 Hg        22.8288245709       29.4608078314       22.8183885440
 Te        17.9133699055       27.8005634988       34.3595617652
 Te        21.1930817676       31.0879878178       34.3631318385
 Te        24.5166674491       34.4389657742       34.4378523561
 Hg        26.1289434624       32.7490009272       22.8437013893
 Te        34.2039703104       31.1263521883       41.3439880962
 Hg        26.1497700003       16.2184716519       32.8021642618
 Hg        19.3183016912        9.9511604689       13.0722440918
 Hg        23.0273039384       12.8391182827       12.8648871112
 Hg        26.1772566768       16.2306689156       12.9230411439
 Hg        29.5031991659       19.5340631057       12.9184388956
 Hg        32.7708715392       22.8422746793       12.8925004663
 Hg        36.1455680380       25.9900949873       12.8415311399
 Hg        38.9702374459       29.7278288644       13.0670860352
 Te        14.6900636491       31.0382258598       34.3034927919
 Te        11.2267212511       31.3006745098       31.2686911048
 Hg        29.4393160088       36.0063297629       22.8478087339
 Hg        32.7992764541       39.3122631396       22.7716407869
 Hg        34.9957665293       42.1806290647       21.8953612513
 Te        27.7553316779       37.8411543864       34.3899938913
 Hg        31.9692752936       17.0988080540        6.4383264797
 Cl         5.1788824588       24.4875474101       24.5034772915
 Hg        12.0420728707        6.0136001961       25.4492479871
 Cl         4.9278517199       23.2194707520       11.9054330844
 Te         7.4628519470       27.4380873804       11.5583180902
 Te        27.8262969823       31.1827178342       34.4282362287
 Hg        19.4074219024        6.7251030765       16.0997770085
 Hg        22.6998834547        9.7615781600       16.2857316159
 Hg        26.1739526034       12.9139512128       16.2591736623
 Hg        29.5293270687       16.2003888900       16.2156282855
 Hg        32.8404468399       19.4915401935       16.2268782083
 Hg        36.0949635362       22.8544894735       16.2140751789
 Hg        39.3076119112       26.2189755086       16.1920569392
 Hg        42.3071396461       29.6204087870       16.1064843990
 Hg        29.4162610214       19.5970717570       32.7087041874
 Te        11.2294448327       31.1831175424       11.3029053712
 Te        14.6039219787       34.3699355294       10.8931437867
 Hg        35.1172798708       20.2733735795        6.5279892381
 Hg        37.1443990812       23.6819359153        6.0572010078
 Hg        36.9636960822       25.4681404146       42.9866457486
 Cl        27.5988325775        5.1215949495       21.4125417131
 Te        31.0862785308       41.3436546167       34.0208921460
 Hg        29.5335943641       16.2415714678        9.5670356719
 Te        37.6912537281       27.8258390199       27.8024985909
 Te         7.5304012579       11.4633246725       27.5303396731
 Hg         6.0050461694       36.9540734285       23.5332045333
 Hg        22.6526564157        6.5644264981       19.5513696442
 Hg        26.1272780897        9.6856600483       19.5915914409
 Hg        29.5000162847       12.9176801804       19.5735494164
 Hg        32.8399126365       16.2215810924       19.5069727681
 Hg        36.0387458706       19.6116384942       19.6120448511
 Hg        39.3013776146       22.9305120909       19.5591384424
 Hg        42.4377229320       26.3476571984       19.5147505773
 Te        27.8003909720       14.6454133280       31.0940532971
 Hg        12.0192161529       42.9758851088       23.5280404767
 Te        27.8109740677       11.3087924408       21.2270735450
 Hg        19.4883196409       32.7680026168       16.1511397855
 Hg        35.9228416373       38.9774795661       19.2587838558
 Te        11.3160506005       21.4602597701       41.4006816726
 Te        14.4996422952       24.7030880233       41.0376951894
 Te        17.8604088675       27.9603818080       40.8708913911
 Te        20.9922650789       31.0936811671       40.8739301143
 Hg        22.8418048777       36.1013173504       16.2166467638
 Hg        26.3137674331       39.2630393200       16.2561787930
 Te        11.2438684159       14.5767445434       27.8880807142
 Te        19.3739858219        7.2044256297       13.3331130935
 Hg        26.0571225900        6.5637745430       22.9761922230
 Hg        29.4363983347        9.6784144991       22.9200492091
 Hg        32.7758324172       12.8942516642       22.8601464811
 Hg        36.0970689561       16.2232861022       22.8663042521
 Hg        39.3014533227       19.5655746514       22.9391531540
 Hg        42.4271199386       23.0175522673       23.0088845109
 Hg        31.9557215383        6.4278305842       17.1506218963
 Te        31.1130109102       37.6895600194       24.4412735054
 Hg        29.5958183840       42.2981762924       16.0874316733
 Hg         6.0506625491       23.7020345356       37.1211418428
 Hg        19.3736831728       32.9138411110       42.2960902913
 Te        24.2278582176       34.3905265044       41.0189352184
 Te        27.4548422073       37.4649893928       41.5259393134
 Te        27.7874973068       31.0764603780       14.6286686552
 Hg        32.7889982632       22.8747858778       32.8010211675
 Te        17.9556613298       17.9645951932       37.7228454154
 Te        11.3179829765       27.5248937214        7.5979687578
 Te        14.9636471208       31.0793946015        7.6652856189
 Te        17.9622098182       34.3155145021       34.3013001743
 Hg        36.2125886983       22.7908404804        9.8249565529
 Hg        29.4723491051        6.5547774815       26.3964636641
 Hg        32.7431057512        9.7465293018       26.3366488856
 Hg        36.1583566632       12.8672187730       26.0069315452
 Hg        39.3131068104       16.2102020490       26.2379312553
 Hg        42.4360432099       19.5545640268       26.3649702592
 Cl        24.3780200908        5.1689670378       18.1746500489
 Te        34.4854122825       41.0449335472       24.2968990506
 Te        17.8909933719       34.0161215524        7.6609238392
 Te        21.4431831164       37.6676604763        7.5890848923
 Te         8.0286925617       27.8052076586       24.5554300193
 Te        14.6326906321       27.7980815516       24.4601252544
 Te        11.2340423506       17.8016010146       37.6952724749
 Te        14.6010584518       21.2383396761       37.8346009540
 Te        17.8750845496       24.5601692336       37.6869591552
 Te        21.1964940258       27.8170025797       37.6288903276
 Te        24.4569931826       31.1284649176       37.6978005447
 Cl         5.1807183837       18.1260598285       24.4034993915
 Te         8.0327672353       21.1738845302       24.4490207493
 Te        31.0705602455        7.9694763182       21.3329524119
 Te        11.2202449714       14.8103855405       34.7814490426
 Hg        32.9153037276        6.7117999912       29.6363900979
 Hg        35.9118055733        9.9814756934       29.7300351426
 Hg        38.9803053524       13.0953254969       29.7550623528
 Hg        42.3036506068       16.1496152639       29.6457303300
 Hg        39.4871179348       13.1726801618       16.8375217729
 Cl        37.8782904148       41.3856234934       31.9897821422
 Te        27.8308667970       34.4647815161       37.7534271770
 Te        31.1948387286       37.7117140775       37.7596100321
 Te        27.8242757646       24.5538035934        8.0151606280
 Te        31.0759293611       27.9844160641        8.1219191354
 Hg        21.9312970927       35.0728732238       42.3869505930
 Te        17.7842356884       37.7525605555       11.2936270115
 Hg        36.0762955021       26.1878480350       32.7640577545
 Te         7.2230147406       19.2780414328       13.3544380065
 Te        11.0678416959       24.3238486684       11.1362621309
 Te        14.5993288560       27.7485605491       11.1650419463
 Te        17.9518661485       31.0265634461       11.2752697980
 Te        21.2254420831       34.3866554781       11.1603122448
 Cl        17.1412308820       31.8466944688       43.0304964613
 Cl        12.1328035016        4.8141242207       23.4303955243
 Hg        12.7520243637        9.8495781577       26.2815561350
 Hg        16.2572080941       12.9140607358       26.1805612272
 Hg        19.5200711325       16.2411132551       26.2153891488
 Te        27.7182799627        7.9682527857       17.9707224468
 Cl        21.1244040010       33.4313985829       44.2334759599
 Te        24.6419399337       37.9256388252       11.1235193477
 Te        29.6758924016       41.7861635596       13.3265448627
 Te         7.6771499517       14.7947546896       31.1272069286
 Te        21.5175805657       41.5199935445       11.5345812531
 Hg        39.4339326736       29.5458686529       32.7499499860
 Hg        25.2984424782       37.1525388884       42.9448792683
 Cl         4.9199578640       27.0333162893       14.9000477356
 Te        14.6113415149       11.4486082818       21.1866898435
 Te        17.9289540499       14.6283926813       21.2258116792
 Cl         4.7799197592       33.3903977664       27.8095225863
 Te        34.3813308911       27.8295604254       11.4415181839
 Cl         4.8066200596       12.1433559373       23.4656791263
 Te        17.8625107500       31.1300601583       24.4578402633
 Te        14.9658174660       17.9067868247       41.3347993282
 Cl        23.2560499130       37.0887665008       44.0905692162
 Hg        39.1895078757       12.5840310970       22.7261127755
 Hg        42.5666446459       16.4082052880       23.3557984028
 Te        24.5032559860       24.5189089453       31.0894370821
 Hg        42.5597567061       31.9817428222       31.8853039716
 Te         7.6039972666       30.9762138519       14.7334349988
 Te        11.4521014188       21.1457480723       14.6160832960
 Te        14.5573620254       24.5104015228       14.5725232259
 Te        17.8763120158       27.7784109992       14.5606644285
 Te        21.2034269227       31.1125618231       14.5582334769
 Te        24.4676056298       34.4389471085       14.5603033466
 Te        27.8297202006       37.5485501676       14.6030427184
 Cl         4.7961634014       15.5860972326       21.1941009882
 Te        31.0336903422       14.7112087195       34.3252736745
 Te        17.9301747610       21.3918867223       41.0456566786
 Te        21.1938312219       24.6002356394       40.9780083882
 Te        24.4245861607       27.8443702748       40.9847805818
 Te        37.5883740177       31.4663233390       11.3560509780
 Hg         6.0104008312       12.0478050150       25.4842041939
 Hg         9.8639640210       12.7348644624       26.2729717428
 Hg        12.9217364980       16.2396562405       26.1796967201
 Hg        16.2428896671       19.5090260527       26.2070394736
 Hg        19.5421828756       22.8345099106       26.1647894055
 Te        27.6834044113       31.0931259945       41.0409441810
 Te        31.0054498604       34.2920363489       41.3780425235
 Te        24.4073704037       11.0934267700       11.1189805022
 Te        34.4524714365       11.2477432234       21.1752325118
 Cl         4.7693857499       27.8789065096       33.3884956998
 Te        27.8903877032       14.5645073156       11.2497352358
 Te        17.9268737355       27.7791152457       27.7581230270
 Te         7.2220276312       13.2932744533       19.3955989459
 Te        11.2349314943       17.6890158870       17.7292307105
 Te        14.6362348317       21.1887604958       17.9280720307
 Te        17.8789730846       24.4877679350       17.8780944340
 Te        21.1860133366       27.8036768422       17.8752298646
 Te        24.4902478847       31.1230221027       17.8699643207
 Te        21.2166479596       31.0752095887       27.7546209641
 Cl        23.4339780538       12.0898607649        4.8320757549
 Cl        27.0809219149       14.6697882126        5.0866657468
 Cl        30.5768727505       18.3531917301        4.8223235478
 Cl        34.1213041156       21.9184651131        4.9305614334
 Cl        37.0848242119       25.7232169757        4.9099753313
 Te        11.3745506267       17.4932367466       11.4207744940
 Te        27.7940914927       34.3655199825       17.9119889393
 Te        31.2964317978       37.7765539230       17.7126046381
 Te        35.6524348471       41.7343212603       19.2747519739
 Te        14.6058528496       21.1661149179       11.4405327387
 Te        13.4168876366       35.5758607671       35.5296916890
 Te        21.1839655186       34.3728336830       24.4464620168