    1116
 i =       69, E =    -33963.7900894839
 Cl         6.3281575712       12.1595609705       17.8449199252
 Cl         5.4333693468       12.7007495494       23.3875718975
 Cl         6.3682362495       15.0349116740       15.0668003753
 Cl         6.2362450634       15.1461033856       20.8315979702
 Cl         5.4085528466       15.6771632823       26.3490931084
 Cl         6.3404997128       17.8436904802       12.1913955501
 Cl         6.2754235532       17.9832906130       18.0247820464
 Cl         6.1851623931       18.1437729965       23.8410654309
 Cl         5.4051390686       18.6491412274       29.3198290105
 Cl         5.6450303985       20.4009322933        9.6799908631
 Cl         6.2308218362       20.7987425054       15.2089906160
 Cl         6.2372476348       20.9642681067       21.0241585950
 Cl         6.1801906258       21.1495605215       26.8436988598
 Cl         5.4371280260       21.5997085491       32.3020694321
 Cl         5.4310021797       23.3426174353       12.7660827479
 Cl         6.1833160776       23.7738841216       18.2047870353
 Cl         6.2332041520       23.9708220906       24.0264203465
 Cl         6.2028058408       24.1668664009       29.8618181658
 Cl         5.6510307121       24.6028273869       35.3615791885
 Cl         5.4000142437       26.2813204831       15.7559630161
 Cl         6.1783807101       26.7894162861       21.2126914492
 Cl         6.2429607100       27.0064543063       27.0192170715
 Cl         6.3254886212       27.1600511218       32.8452858153
 Cl         5.4078147260       29.2521834235       18.7091339884
 Cl         6.1923579057       29.8517345677       24.1906589387
 Cl         6.3797520122       29.9599862225       29.9652308322
 Cl         5.4410191253       32.2872546118       21.6282557657
 Cl         6.3185381533       32.8341114102       27.1601546652
 Cl         5.6292479705       35.3308968363       24.5968722187
 In         7.5646285489       10.3011403374       19.2888071964
 In         7.8105491668       13.2877618759       16.2562671335
 In         7.4232512151       13.3649849365       22.4789010105
 In         7.8106656327       16.2564188495       13.3455616613
 In         7.7159864350       16.4079756378       19.3925753257
 In         7.4191197666       16.4068656504       25.5425896609
 In         7.5634017597       19.2885194501       10.3172156662
 In         7.7218414756       19.3738460995       16.4768343883
 In         7.6725581220       19.4644976709       22.4894333227
 In         7.4147862996       19.4569908820       28.5894056844
 In         7.4182996328       22.4227478127       13.4281604541
 In         7.6708249654       22.4209803287       19.5306717147
 In         7.6691294579       22.5140498602       25.5368265879
 In         7.4198564494       22.5230053423       31.6368199426
 In         7.4135845690       25.4746218622       16.4805970244
 In         7.6652659214       25.4754044119       22.5796699733
 In         7.6643203414       25.6145644903       28.5927797294
 In         7.5624981755       25.7125770103       34.6989367758
 In         7.4154419019       28.5289702075       19.5322853510
 In         7.6638742777       28.5850752383       25.6273398872
 In         7.8081795559       28.7475087258       31.7107865657
 In         7.4190503385       31.6279514023       22.5671045314
 In         7.8057281123       31.7081858882       28.7490872406
 In         7.5441565822       34.6969018822       25.7157235609
 Cl         9.6462522585        5.6481449745       20.3921539666
 As         8.7667718189        8.7716190207       17.6409138056
 Cl         5.6508991152        9.6391134360       20.3946809983
 As         8.8514491369       11.6773743066       14.6464546799
 As         8.8920903211       11.8997990518       20.9427588948
 Cl         8.7782401316       12.1647069845       26.6776621229
 As         8.8255422912       14.6517168312       11.7081572749
 As         9.0804909317       14.8932481684       17.8996303038
 As         8.8772547554       14.9319809965       23.9909023707
 Cl         8.7415061104       15.2571168986       29.7335518878
 As         8.7493600568       17.6480267403        8.7701475353
 As         9.0833078345       17.8856909393       14.9511679832
 As         9.0522232858       17.9535100085       20.9675429867
 As         8.8667309644       17.9673716595       27.0320818174
 Cl         8.7837708398       18.3217645959       32.8027915552
 Cl         9.6494034661       20.4014822207        5.6596349967
 As         8.8950376605       20.9170574283       11.9447999684
 As         9.0743718384       20.9341189790       18.0093871695
 As         9.0540484151       20.9946482788       24.0085491266
 As         8.8675439648       21.0187445256       30.0545663561
 Cl         9.0004799037       21.3206782218       36.0119511336
 Cl         8.9852782562       23.6595641335        9.0428462104
 As         8.8720343635       23.9572556659       14.9749528235
 As         9.0442322265       23.9659778886       21.0399673012
 As         9.0281977081       24.0478747612       27.0532937733
 As         8.8891584441       24.0589732269       33.0982901226
 Cl         9.6477026279       24.6059737149       39.3497775804
 Cl         8.7797821388       26.6584686989       12.2113933369
 As         8.8631675959       26.9742990822       18.0320900164
 As         9.0235965682       27.0290516553       24.0771560655
 As         9.0569327174       27.0972951717       30.0991238069
 As         8.7661451970       27.3585819111       36.2288074608
 Cl         8.7491649554       29.6817680597       15.3167658005
 As         8.8672114605       30.0386583191       21.0572211607
 As         9.0586496585       30.0936114738       27.1057756985
 As         8.8500614007       30.3559325502       33.3213687959
 Cl         8.7814386192       32.7930281309       18.3434590679
 As         8.8953452846       33.0994254624       24.0769722455
 As         8.8340806498       33.3173363621       30.3667796384
 Cl         9.6298569078       39.3448115092       24.6020130743
 As         8.7390324193       36.2356302712       27.3594381094
 In        10.2975287713        7.5615403737       19.2802567277
 In        10.3700724719       10.3711434832       16.3361602117
 In        10.3992317699       10.3952479499       22.4980626794
 In        10.2375774882       13.5116520836       13.5152414364
 In        10.4781662145       13.3674714710       19.5292732284
 In        10.3908641381       13.3729540256       25.5524566813
 In        10.3291250818       16.3345135301       10.3814918763
 In        10.6124657572       16.4355487164       16.4762360405
 In        10.4711094707       16.3962199260       22.5747420357
 In        10.3865145860       16.4036580539       28.5905490022
 In        10.2948788505       19.2864714498        7.5735715842
 In        10.4816209575       19.5125250399       13.4224956487
 In        10.6113188519       19.4556496628       19.5180963029
 In        10.4664123927       19.3997687501       25.6029916766
 In        10.3899684711       19.4500639927       31.5862065168
 In        10.3954095898       22.4942275069       10.4554218667
 In        10.4734719558       22.5466099917       16.4233170370
 In        10.6002559859       22.4909542348       22.5175431134
 In        10.4654079956       22.4335073760       28.5979792523
 In        10.3984263661       22.4995600268       34.5999313213
 In        10.3864865046       25.5430208734       13.4348436281
 In        10.4742263275       25.5515423909       19.4560266655
 In        10.5594210220       25.5257118827       25.5463541477
 In        10.4714023563       25.4740927308       31.6276989309
 In        10.2979326809       25.7180195756       37.4357580042
 In        10.3820429709       28.5298555557       16.4738027524
 In        10.4645321817       28.5889159445       22.4819573416
 In        10.5635616484       28.5383418477       28.5474071518
 In        10.3669887246       28.6655225044       34.6280501869
 In        10.3844140956       31.5688819209       19.4650839768
 In        10.4777706137       31.6237232053       25.4861068294
 In        10.2380467283       31.4866024473       31.4872746562
 In        10.3986618038       34.5969987032       22.5032844690
 In        10.3312318785       34.6327413823       28.6700224269
 In        10.2801536208       37.4350886673       25.7209682130
 Cl        12.1575529329        6.3256705493       17.8346740201
 Cl        12.7144421787        5.4334968317       23.3638461348
 As        11.6750278269        8.8531347791       14.6442627969
 As        11.8981133546        8.8945159143       20.9252141594
 Cl        12.2144965832        8.7818062872       26.6842592760
 Cl        12.1217230822       12.1264380407       12.1281874580
 As        11.9068089444       11.9059720815       17.9324614549
 As        11.9133310254       11.8916394704       24.0244570254
 Cl        12.0146525620       11.9889291181       29.8304122729
 As        11.6625266317       14.6506227558        8.8676116484
 As        11.9839396052       14.9186522160       14.9265261756
 As        11.9587413453       14.9359634987       21.0200387776
 As        11.8829721281       14.9059854458       27.0599121119
 Cl        12.0047149442       15.1602316360       32.9918091106
 Cl        12.1547554356       17.8439465019        6.3367804710
 As        11.8878658696       17.9268786084       11.9211339998
 As        12.0554884013       17.9668259431       17.9964456627
 As        11.9589125399       17.9452912025       24.0491961203
 As        11.8886798496       17.9341053156       30.0789010434
 Cl        12.2126137987       18.3041820395       36.2110952271
 As        11.8853313781       20.9303226834        8.9209666060
 As        11.9741912425       21.0075522693       14.9672702219
 As        12.0543157839       20.9814915606       21.0177257092
 As        11.9558841670       20.9575770174       27.0537920653
 As        11.9038735078       20.9685914781       33.0961076026
 Cl        12.7178869977       21.6368212281       39.5643820345
 Cl        12.7188288674       23.3612503018        5.4428047870
 As        11.9123418915       24.0316377040       11.9282013790
 As        11.9630196594       24.0119981158       17.9795270005
 As        12.0250886084       24.0114162213       24.0330229206
 As        11.9513813796       23.9789972202       30.0654263123
 As        11.8963041595       24.0726359420       36.0998203962
 Cl        15.7091228700       26.3028381490        5.4037186721
 As        11.8900940508       27.0341218999       14.9562874866
 As        11.9527301182       27.0331094019       21.0026503664
 As        12.0295252949       27.0184159102       27.0359418338
 As        11.8997907822       27.0688305558       33.0892650166
 Cl        12.1595472523       27.1608424304       38.6704650690
 Cl        11.9949532164       29.8028204441       12.0384211898
 As        11.8885127518       30.0471597292       17.9737842396
 As        11.9659332513       30.0520287065       24.0076290471
 As        11.9674318326       30.0696438539       30.0684117511
 As        11.6743574299       30.3560965333       36.1454205067
 Cl        12.0025896237       32.9736270207       15.2112287514
 As        11.9026399483       33.0864568548       20.9780547278
 As        11.8926449451       33.0974908188       27.0823261711
 Cl        12.1217845487       32.8722400611       32.8709338137
 Cl        12.2251938730       36.2272432257       18.3368953593
 As        11.8893695497       36.1016593984       24.0808836024
 As        11.6667501668       36.1412472917       30.3538436419
 Cl        12.7124991505       39.5585778663       21.6307870708
 Cl        12.1395540888       38.6692212136       27.1652883578
 In        13.2882021378        7.8115421059       16.2507816692
 In        13.3678786793        7.4179449493       22.4347751721
 In        13.5080674641       10.2392512504       13.5130482647
 In        13.3730855548       10.4777606401       19.5216508124
 In        13.4253470313       10.3846018558       25.5453715223
 In        13.5027460766       13.5134676918       10.2416336587
 In        13.4292002494       13.4299658949       16.4868782233
 In        13.4236701748       13.4233337663       22.5779795378
 In        13.3773223664       13.3764656936       28.5985750973
 In        13.2794021354       16.2497322363        7.8165926729
 In        13.4234423253       16.4869473391       13.4355805143
 In        13.4976519949       16.4240732815       19.5342484023
 In        13.4195936684       16.4018954953       25.6104565909
 In        13.3772663516       16.4006288806       31.6222465224
 In        13.3614798628       19.5157774117       10.4946487153
 In        13.5027509120       19.5240553318       16.4725703638
 In        13.5008921051       19.4462860094       22.5700152727
 In        13.4222100872       19.3934654678       28.5935901128
 In        13.4169180053       19.4544863558       34.6116034827
 In        13.3580401076       22.4246809645        7.4280165235
 In        13.4262557418       22.5708215146       13.4370613344
 In        13.5037146155       22.5139732272       19.4612184593
 In        13.4819586648       22.4562523562       25.5556439486
 In        13.4203992835       22.4214519351       31.5786334451
 In        13.3680731249       22.5669128116       37.5790829547
 In        13.4176273317       25.5455660902       10.3964956099
 In        13.4258118525       25.5622840242       16.4263465020
 In        13.4939241971       25.5420051852       22.4906548493
 In        13.4726469466       25.4723185146       28.5735829666
 In        13.3689387120       25.4788613170       34.5157771668
 In        13.3715973435       28.5860005221       13.4258310270
 In        13.4239982727       28.5791351865       19.4487413761
 In        13.4903293154       28.5355601639       25.4846080285
 In        13.4206327555       28.5153676541       31.5640183266
 In        13.2873578502       28.7500346480       37.1878785696
 In        13.3723872924       31.5778834929       16.4258995631
 In        13.4184045394       31.5698278775       22.4326362803
 In        13.4231929382       31.5670594931       28.5164718234
 In        13.5078775780       31.4894540875       34.7601665314
 In        13.4192515328       34.6044262424       19.4634987777
 In        13.3649370866       34.5214851173       25.4906442346
 In        13.5061653918       34.7596838112       31.4858483475
 In        13.3618607011       37.5789183503       22.5726490457
 In        13.2807849822       37.1886658665       28.7511489614
 Cl        15.0331453826        6.3832004986       15.0315186882
 Cl        15.1512597050        6.2024063129       20.8093924033
 Cl        15.6975329158        5.3975310546       26.3304214976
 As        14.6400510259        8.8520986087       11.6805642733
 As        14.8993832808        9.0683525665       17.8944924166
 As        14.9446459724        8.8605091019       23.9637886526
 Cl        15.2766098800        8.7330452005       29.7287316381
 As        14.6362801502       11.6812528223        8.8544173237
 As        14.9163893678       11.9842752319       14.9224922451
 As        14.9366680227       11.9588378370       21.0147495055
 As        14.9234860947       11.8909784099       27.0596048775
 Cl        15.1661839075       11.9998806209       32.9912976308
 Cl        15.0238341247       15.0368770094        6.3884615355
 As        14.9105375668       14.9171177028       11.9939560985
 As        14.9600043800       14.9628544962       17.9723483302
 As        14.9398049798       14.9428127783       24.0610010561
 As        14.9039248931       14.9038362574       30.0942664012
 Cl        18.6623182964       15.6915843398       39.5979657484
 As        14.8872263441       17.8873670651        9.0881581657
 As        14.9514027181       17.9712840462       14.9766287378
 As        14.9757400148       17.9622288408       21.0295996268
 As        14.9475073668       17.9426412397       27.0557188010
 As        14.9197093695       17.9370043136       33.1091362139
 Cl        15.6969422560       18.6646328136       39.6005216639
 Cl        15.1492173269       20.8042801463        6.2334624264
 As        14.9335162568       21.0078631307       11.9685722498
 As        15.0074725549       21.0033385727       17.9890197448
 As        14.9892074597       20.9823906588       24.0354690157
 As        14.9369035446       20.9375732900       30.0587250451
 As        14.9394815506       21.0321607009       36.1355170295
 As        14.9321858882       23.9489768665        8.8773445023
 As        14.9549185306       24.0398540176       14.9587860955
 As        14.9759897833       24.0144291259       20.9930854411
 As        14.9665660434       23.9783167802       27.0446477776
 As        14.9347012657       23.9832344894       33.0390522136
 Cl        15.1505572326       24.1946073894       38.7690082403
 As        14.9148041086       27.0600371620       11.9074510403
 As        14.9329220836       27.0503347845       17.9574742423
 As        14.9940239282       27.0084902608       24.0126189858
 As        14.9498366910       27.0249555750       30.0349395860
 As        14.8924443440       27.1134181913       35.9136837698
 Cl        15.2824670420       29.7264265937        8.7358300770
 As        14.9106413671       30.0817728795       14.9271054212
 As        14.9528058180       30.0356953769       20.9846456626
 As        14.9489068785       30.0251656908       27.0323631765
 As        14.9082619794       30.0847506474       33.0052836648
 Cl        15.0326470182       29.9643894690       38.6141385370
 Cl        15.1602602468       32.9733746349       12.0280990168
 As        14.9173573186       33.0814990423       17.9659392444
 As        14.9262850870       33.0318261127       24.0052649602
 As        14.9183717895       33.0192776744       30.0725390462
 As        14.6417490935       33.3214526515       36.1467350935
 Cl        15.2745120511       36.2416870758       15.2947222204
 As        14.9390044612       36.1193045124       21.0641409350
 As        14.8957827996       35.9400805334       27.1058050721
 As        14.6397573685       36.1464472800       33.3189065653
 Cl        15.7032668804       39.5903233846       18.6933549612
 Cl        15.1482641082       38.8030639892       24.1867703122
 Cl        15.0219369488       38.6169916824       29.9701150630
 In        16.2491963128        7.8135013221       13.2938153416
 In        16.4114659040        7.6800527493       19.3747050553
 In        16.4136489937        7.4162149733       25.5332323972
 In        16.3239550295       10.3761006141       10.3766844392
 In        16.4329151268       10.6017928181       16.4627464512
 In        16.4008405757       10.4679110987       22.5619035693
 In        16.4113321574       10.3869073151       28.5876624679
 In        16.2432854935       13.2950067255        7.8149239915
 In        16.4813858546       13.4317525885       13.4352887878
 In        16.4221785876       13.4996081237       19.5301359767
 In        16.4085224945       13.4253148234       25.6017633383
 In        16.4003436067       13.3778803465       31.6215406887
 In        16.4262863956       16.4557132797       10.6130918146
 In        16.4734295028       16.4794609626       16.4811453831
 In        16.4387259614       16.4589253324       22.5712547063
 In        16.3999349678       16.3998931368       28.5984890730
 In        16.4103186396       16.4103990263       34.6129284116
 In        16.4068063715       19.3719685765        7.7213975570
 In        16.4169256002       19.5249578104       13.5092328739
 In        16.4750583661       19.4684291720       19.5181192674
 In        16.4589034830       19.4484983355       25.5550485692
 In        16.4055488571       19.3916210225       31.5725180678
 In        16.4107664003       19.4662987797       37.5824193164
 In        16.3977325116       22.5544077477       10.4786341134
 In        16.4652726904       22.5612444175       16.4789712474
 In        16.4751037124       22.5001270945       22.5057826900
 In        16.4310667666       22.4309384651       28.5438170383
 In        16.3981104044       22.4331724508       34.5288637944
 In        16.4117498429       25.4813311762        7.4180215080
 In        16.4048946527       25.5954405882       13.4330654288
 In        16.4305583518       25.5485093601       19.4585651041
 In        16.4732661523       25.4799195954       25.5358125600
 In        16.4190542926       25.4687233424       31.4966441169
 In        16.4102863917       25.6251515114       37.2790732793
 In        16.4071681021       28.5842729255       10.3949963689
 In        16.4035641607       28.5889065192       16.4201415883
 In        16.4631532269       28.5242098014       22.4825302380
 In        16.4679859699       28.5200934639       28.5259211623
 In        16.4292410361       28.5501214717       34.3871713585
 In        16.4043471757       31.6258120092       13.4199125350
 In        16.4073055175       31.5663405819       19.4448764189
 In        16.4184934069       31.4959248590       25.4844979737
 In        16.4809579071       31.5701519633       31.5639480108
 In        16.2497408067       31.7077196084       37.1862886891
 In        16.4092574058       34.6083433027       16.4659677821
 In        16.4005454819       34.5289631885       22.4849148121
 In        16.4376438043       34.4214443799       28.5440561764
 In        16.3298063125       34.6289737182       34.6270452344
 In        16.4113881243       37.5825264467       19.5261160831
 In        16.4080391004       37.3321263345       25.6292109275
 In        16.2490510687       37.1885686474       31.7087971465
 Cl        17.8393858914        6.3301296031       12.1615399056
 Cl        17.9895159118        6.2686504555       17.9799316800
 Cl        18.1598899751        6.1936036627       23.8137447537
 Cl        18.6603348457        5.4027980379       29.3022996219
 As        17.6065625981        8.7644868188        8.7695108709
 As        17.8794175163        9.0880091623       14.9072600884
 As        17.9489481883        9.0543427203       20.9286639544
 As        17.9732912650        8.8719631728       27.0164481258
 Cl        18.3228551280        8.7851207029       32.8013732920
 Cl        17.8257568134       12.1701796881        6.3217033408
 As        17.9211808492       11.9077107664       11.9092855794
 As        17.9581691693       12.0618674670       17.9716983647
 As        17.9463336703       11.9667456165       24.0265336011
 As        17.9367412597       11.8914863204       30.0779222477
 Cl        18.3232257909       12.1898016998       36.2117471654
 As        17.8719209112       14.9059242471        9.0925206565
 As        17.9641751219       14.9631908111       14.9688107603
 As        17.9469882017       14.9905869321       21.0239454344
 As        17.9445501022       14.9510541381       27.0528586982
 As        17.9366052810       14.9194803297       33.1077802232
 Cl        17.9815499258       17.9874299861        6.2892224048
 As        17.9548166027       17.9669209787       12.0700353504
 As        17.9756989315       17.9839351275       17.9932059416
 As        17.9657542377       17.9733157390       24.0303617063
 As        17.9445612208       17.9443056980       30.0454142382
 As        17.9705144609       17.9790067717       36.1298090667
 As        17.9534391419       20.9297511548        9.0693801164
 As        17.9527709023       21.0141193515       14.9958315935
 As        17.9745054604       20.9847355128       21.0102994800
 As        17.9639086203       20.9735965192       27.0286400400
 As        17.9419238715       20.9612802529       33.0344701122
 Cl        18.1530216125       21.1846303538       38.8042512979
 Cl        18.1607254430       23.7907088605        6.1859338765
 As        17.9444073640       24.0194826926       11.9754647776
 As        17.9708788983       24.0295907748       17.9997335006
 As        17.9791416368       24.0008214248       24.0122766693
 As        17.9470266938       23.9676591564       30.0136273986
 As        17.9529714933       24.0618652602       35.9324111835
 As        17.9575257911       26.9908305822        8.8755494759
 As        17.9443412872       27.0474537053       14.9603061001
 As        17.9596329192       27.0188088020       20.9791857530
 As        17.9687761119       27.0004282992       27.0292733759
 As        17.9519711073       27.0261733526       32.9367314230
 Cl        17.9798028900       27.0121136450       38.7092407554
 Cl        18.6738036575       29.2750521129        5.4064540762
 As        17.9303093230       30.0783404271       11.9041441060
 As        17.9405221168       30.0485553302       17.9646343574
 As        17.9617452906       30.0057231122       24.0099640456
 As        17.9634502735       30.0281232306       30.0402480324
 As        17.8767271886       30.0943386486       35.9073331058
 Cl        18.3374363799       32.7961358986        8.7843015572
 As        17.9393174478       33.1174095118       14.9488896931
 As        17.9447385093       33.0334558636       21.0039376158
 As        17.9540726607       32.9407961091       27.0396109923
 As        17.9215417449       33.0951051087       33.0881676973
 Cl        17.8400717898       32.8345619491       38.6685049251
 Cl        18.3302652120       36.1861929028       12.1722848786
 As        17.9680261083       36.1312875821       18.0218688757
 As        17.9538541592       35.9536635210       24.0877144403
 As        17.8883000287       35.9342282324       30.0900407375
 As        17.6304400107       36.2316118534       36.2321175112
 Cl        18.6703667030       39.5834583377       15.7106325019
 Cl        18.1623095307       38.8149356074       21.2044916708
 Cl        17.9806742488       38.7578898573       27.0149247217
 Cl        17.8335848330       38.6733428714       32.8429489053
 In        19.2588516768        7.5657839408       10.2952033194
 In        19.3715341599        7.7149521028       16.4150649020
 In        19.4632147654        7.6738880900       22.4373936694
 In        19.4588576564        7.4186755521       28.5801817830
 In        19.2352303512       10.2991203475        7.5581485288
 In        19.5116288346       10.4807156353       13.3745227940
 In        19.4535370984       10.6069846588       19.4655296606
 In        19.3989917133       10.4666795220       25.5677576450
 In        19.4502868022       10.3913041818       31.5844062706
 In        19.5078093813       13.3730007828       10.4800802413
 In        19.5167833024       13.5024870750       16.4433196622
 In        19.4427958228       13.5040042952       22.5340644142
 In        19.3945669331       13.4247836804       28.5911341365
 In        19.4495722635       13.4106730721       34.6079698372
 In        19.3625591968       16.4090796928        7.7159446185
 In        19.5156507335       16.4344031188       13.5067560868
 In        19.4622353560       16.4809755059       19.5161001273
 In        19.4427003066       16.4659754387       25.5523775298
 In        19.3935945342       16.4063787273       31.5728586127
 In        19.4581148353       16.4173384881       37.5819715719
 In        19.4516518903       19.4611847436       10.6174707808
 In        19.4647088969       19.5106236251       16.4908799980
 In        19.4711828279       19.4692297339       22.5147996401
 In        19.4416122792       19.4479769131       28.5303884767
 In        19.3986505333       19.4236557572       34.5342955253
 In        19.4655593623       22.4247072534        7.6736106245
 In        19.4431028509       22.5256139165       13.5085177235
 In        19.4639099691       22.5045369723       19.5079284023
 In        19.4685440361       22.4887276173       25.5290686367
 In        19.4408583723       22.4450039384       31.4963477030
 In        19.4620422734       22.5595369464       37.3263406966
 In        19.3920842849       25.5600849031       10.4719583231
 In        19.4429617509       25.5477937265       16.4782341233
 In        19.4629552686       25.5326265512       22.5026399494
 In        19.4624988390       25.4781704080       28.5238483870
 In        19.4545651999       25.5325268171       34.3856967579
 In        19.4586924412       28.5275877421        7.4192225488
 In        19.3921131721       28.5885393679       13.4300605743
 In        19.4412696715       28.5273782965       19.4565287391
 In        19.4666078022       28.5132829909       25.5325994869
 In        19.5167834746       28.5452985015       31.4964601292
 In        19.3694627962       28.5835447882       37.2780786533
 In        19.4502441513       31.5699051568       10.3920645379
 In        19.3950688464       31.5685735101       16.4185607249
 In        19.4454572944       31.4916803447       22.4869211185
 In        19.5126533780       31.5002064267       28.5758262453
 In        19.5105010150       31.6246217068       34.5137848583
 In        19.4533646906       34.6103022044       13.4297289281
 In        19.3945071799       34.5229307616       19.4462727544
 In        19.4543821775       34.3927291455       25.5464444755
 In        19.5111724416       34.5242609761       31.6236519086
 In        19.2761381337       34.7007431787       37.4338092418
 In        19.4657354100       37.5772729114       16.4660607961
 In        19.4673291572       37.3248086886       22.5700354975
 In        19.3720493732       37.3287583250       28.5853936900
 In        19.2746095129       37.4372739817       34.7031817655
 Cl        20.8040857338        6.2307386735       15.1471253606
 Cl        20.9744556809        6.2291479807       20.9955513300
 Cl        21.1581547327        6.1948162440       26.8219868181
 Cl        21.6038996576        5.4356040375       32.2912448443