     1116
 i =       87, E =    -43222.5145886194
 Cl         8.8809452488       14.1750655279       19.2924937214
 Cl         8.3047505151       14.5858550560       24.3606601887
 Cl         8.9034427613       16.7398071578       16.7807826877
 Cl         8.8488609488       16.9374516071       21.9914781081
 Cl         8.3446169642       17.2662933063       27.0557343799
 Cl         8.8681185436       19.2278985877       14.2109876217
 Cl         8.9056895634       19.4476875573       19.4886270926
 Cl         8.8664467693       19.6338918876       24.6885092162
 Cl         8.2830580027       19.9887320717       29.7262296153
 Cl         8.4275394741       21.5811907576       11.7971434622
 Cl         8.8432138143       21.9451340112       16.9745659938
 Cl         8.9098025267       22.1260155059       22.1744819904
 Cl         8.8356792483       22.3316104802       27.3600145743
 Cl         8.3001410844       22.7038142399       32.4810787520
 Cl         8.2921523617       24.2817855350       14.5876950585
 Cl         8.8342753997       24.6178560774       19.6681645265
 Cl         8.9058408356       24.8281636234       24.8703195458
 Cl         8.8319197157       25.0570313671       30.0961768981
 Cl         8.4303366861       25.4356904381       35.2719661399
 Cl         8.2601606401       26.9817078433       17.3040618359
 Cl         8.8374828209       27.3434551256       22.3839114505
 Cl         8.9085989220       27.5505251347       27.5558220050
 Cl         8.8809974458       27.7788844306       32.8332501380
 Cl         8.2598653859       29.7036482765       20.0173309124
 Cl         8.8377871802       30.0876039688       25.0545164221
 Cl         8.8900589762       30.2600150492       30.2547860759
 Cl         8.2927835284       32.4669789186       22.6984909180
 Cl         8.8922749972       32.8345605868       27.7574585375
 Cl         8.4250558604       35.2593221121       25.3802980411
 Ga        10.1210655034       12.5060403354       20.6528324199
 Ga        10.2897728814       15.2530373640       17.9465948664
 Ga        10.0516860306       15.3322058333       23.4987612690
 Ga        10.2891251357       17.8781693156       15.2716722661
 Ga        10.2767153215       18.0524102199       20.7432618317
 Ga        10.1160681174       18.0323795929       26.2697597910
 Ga        10.1126893296       20.5751943164       12.5660518318
 Ga        10.2758693022       20.7112980490       18.1032045000
 Ga        10.2816434167       20.7968603869       23.4960364975
 Ga        10.0460794632       20.8026579241       28.9694025930
 Ga        10.0381117991       23.4221353353       15.3391729102
 Ga        10.2687051251       23.4320872004       20.8210384324
 Ga        10.2748719276       23.5059862261       26.1973549521
 Ga        10.0420553971       23.5744327126       31.7335625943
 Ga        10.0373009136       26.1982582129       18.0576620609
 Ga        10.2692909009       26.1889980529       23.5732227534
 Ga        10.2631377122       26.2804001298       28.9605118056
 Ga        10.1192884821       26.4305164648       34.5042310079
 Ga        10.0394225988       28.9600945282       20.8065122795
 Ga        10.2682095042       28.9580019232       26.2847293379
 Ga        10.2878885842       29.1245937794       31.7457250350
 Ga        10.0380687253       31.7242333531       23.5656587468
 Ga        10.2890865247       31.7486196122       29.1173993220
 Ga        10.1205492472       34.5056131977       26.3711434867
 Cl        11.7862900119        8.4312716770       21.6501044836
  P        11.2607588731       11.2290420304       19.1899808319
 Cl         8.4305654707       11.7398776531       21.6457723195
  P        11.3470544523       13.8876040978       16.5579108769
  P        11.3171219572       14.0102422312       22.0886277195
 Cl        11.3158567054       14.2135032462       27.2958433821
  P        11.3397675842       16.5030197854       13.8904621965
  P        11.4554126810       16.6929812320       19.3956938681
  P        11.3688697613       16.7483941543       24.8145878126
 Cl        11.3033866841       16.9862376511       30.0520005026
  P        11.2420141556       19.1420780838       11.2502380844
  P        11.4437839649       19.3354614814       16.7385783328
  P        11.4996755282       19.4438582164       22.1219168147
  P        11.3577827325       19.4870211031       27.5661817008
 Cl        11.2721668315       19.7087404890       32.7958605192
 Cl        11.7333430016       21.6393200872        8.4430435363
  P        11.3125781265       22.0099175556       14.0499505377
  P        11.4978761236       22.0885223057       19.4743770266
  P        11.5200630956       22.1559690932       24.8478377377
  P        11.3083091110       22.2269683619       30.2823466493
 Cl        11.3905491683       22.4751146252       35.6243721958
 Cl        11.3727265356       24.5380737089       11.4610569041
  P        11.3063352172       24.7718866896       16.7680273833
  P        11.4734006052       24.8020765060       22.2052047878
  P        11.4567848062       24.8860540021       27.5713855004
  P        11.3193949336       24.9943005514       33.0080818010
 Cl        11.7847916140       25.4247008623       38.5699850602
 Cl        11.2727891785       27.2920958449       14.2669353095
  P        11.3029363635       27.4985781562       19.5118760114
  P        11.4784793301       27.5529498746       24.9252065577
  P        11.4419580301       27.6606366242       30.3003031044
  P        11.2618656387       27.8900398509       35.7799075636
 Cl        11.2208945559       29.9915423209       17.0242710808
  P        11.3046016099       30.2683420980       22.2290868342
  P        11.4490830388       30.3075820496       27.6507385652
  P        11.3283820217       30.5061234316       33.1336097853
 Cl        11.2513260469       32.7992904132       19.7306819096
  P        11.3210274777       33.0012300169       24.9661361972
  P        11.3270193833       33.1390377768       30.4984657789
 Cl        11.8002908003       38.5797213134       25.3760762964
  P        11.2658582716       35.7747255824       27.8376609888
 Ga        12.5665263024       10.1144664202       20.6507703796
 Ga        12.6558382598       12.6517233172       18.0287122638
 Ga        12.6622136433       12.6550156578       23.4901834586
 Ga        12.5607870012       15.4908517376       15.5060235352
 Ga        12.7385364423       15.3316656950       20.8154940754
 Ga        12.7287724490       15.3478128881       26.2130267111
 Ga        12.6532762200       17.9644991780       12.6511759613
 Ga        12.8163087213       18.0488058181       18.1062004677
 Ga        12.8006082632       18.0413209346       23.5229506757
 Ga        12.7320656717       18.0954791080       28.9645264512
 Ga        12.5000266235       20.6396611849       10.1269128454
 Ga        12.7333239882       20.7351533513       15.3555851156
 Ga        12.8839330683       20.7875379734       20.8129582698
 Ga        12.8027980760       20.7371079452       26.2692679295
 Ga        12.6648123048       20.8075326437       31.6581311519
 Ga        12.6545252596       23.4239735039       12.7209635491
 Ga        12.7445793592       23.5065537905       18.0558073888
 Ga        12.8826183705       23.4965015909       23.5123546255
 Ga        12.7381544486       23.4906321641       28.9711821202
 Ga        12.6593091241       23.5835105466       34.3504196893
 Ga        12.6616520700       26.1940172609       15.4128479699
 Ga        12.7368022105       26.2051265782       20.7976039053
 Ga        12.8323860086       26.2050081016       26.2599424731
 Ga        12.7316917946       26.2573716434       31.6653871260
 Ga        12.5663474063       26.4268131153       36.8881039597
 Ga        12.6579439016       28.8956425572       18.1147236942
 Ga        12.7351472932       28.9595620050       23.4962157251
 Ga        12.8160108315       28.9585216850       28.9548135313
 Ga        12.6546675018       29.0477640017       34.3531033453
 Ga        12.6547630112       31.6550534345       20.8101751573
 Ga        12.7348844498       31.6603143343       26.2160626471
 Ga        12.5605755987       31.5653291247       31.5601374303
 Ga        12.6615387971       34.3495214636       23.5747662716
 Ga        12.6503686327       34.3532511245       29.0321997850
 Ga        12.5647909598       36.8855307202       26.3661800138
 Cl        14.2179352251        8.8640520787       19.3030101445
 Cl        14.5999280482        8.2872096071       24.3447137208
  P        13.8805996152       11.3141775488       16.5645112675
  P        14.0365504268       11.3161062615       22.0887147229
 Cl        14.2947373445       11.2376572431       27.2835902697
 Cl        14.1726492956       14.1501675352       14.1787656198
  P        14.0533027010       14.0365302897       19.4242293044
  P        14.0551096482       13.9940829531       24.8412516281
 Cl        14.1845508612       14.0871131613       30.1087771344
  P        13.8981408992       16.5268046636       11.3276080929
  P        14.1209377498       16.7368516107       16.7523728598
  P        14.0967589174       16.7017787915       22.1626323540
  P        14.0554424275       16.7236814548       27.5820637119
 Cl        14.1771316912       16.9429052267       32.8971332183
 Cl        14.1877989418       19.2878496107        8.8827408235
  P        14.0475074553       19.3810016254       14.0388806143
  P        14.1320718928       19.4195800452       19.4582495766
  P        14.1138388328       19.4232499437       24.8777870449
  P        14.0518849930       19.4828166478       30.2965925557
 Cl        14.2361547609       19.7008380379       35.7393074247
  P        14.0068873759       22.0514832561       11.3333311195
  P        14.0500995211       22.1083825005       16.7542825271
  P        14.1664301263       22.1339215904       22.1803198096
  P        14.0792912956       22.1545323212       27.5957998364
  P        14.0072588915       22.1938044803       33.0036880152
 Cl        14.5620674610       22.6975761877       38.6932771402
 Cl        14.5844632718       24.3063800714        8.3097064045
  P        14.0022251010       24.8049880109       14.0677231658
  P        14.0651261074       24.8446459808       19.4547502307
  P        14.1309756117       24.8575425379       24.8866214863
  P        14.0511106833       24.8754314886       30.2890092985
  P        14.0331290197       24.9823669123       35.6860456207
 Cl        17.2863667961       26.9818066255        8.3309704337
  P        14.0149725997       27.5410364276       16.7763799570
  P        14.0493544833       27.5531023643       22.1707928709
  P        14.1169461357       27.5678134862       27.5941561221
  P        14.0418193929       27.6336976385       32.9688327304
 Cl        14.2123591544       27.7706250893       38.1384761745
 Cl        14.1043971196       30.0985733636       14.1591886883
  P        13.9945436491       30.2686279254       19.4765545409
  P        14.0598873937       30.2655011529       24.8740974921
  P        14.1128709334       30.2900291725       30.2914774260
  P        13.8814839182       30.5106880786       35.6876057620
 Cl        14.1020112178       32.8952965004       16.9550510313
  P        14.0051655177       32.9980095781       22.1901062990
  P        14.0362381421       32.9553602586       27.6203160569
 Cl        14.1626561286       32.8803684914       32.8800215383
 Cl        14.2286101952       35.7484604276       19.7117047078
  P        14.0427495159       35.6762304079       24.9653676545
  P        13.8870955884       35.6652172701       30.4985458163
 Cl        14.5774794990       38.6995063237       22.6974731139
 Cl        14.2125675315       38.1251040957       27.7532962554
 Ga        15.2691456952       10.2876316598       17.9505458489
 Ga        15.3397535284       10.0409858765       23.4951467617
 Ga        15.4968161593       12.4943549155       15.5084017253
 Ga        15.3542815426       12.7301727380       20.8110373692
 Ga        15.4199061818       12.6570151093       26.2015550035
 Ga        15.4969751888       15.5000457746       12.5623196891
 Ga        15.4156512076       15.3969095052       18.1232096528
 Ga        15.4215299283       15.3496430276       23.5681768536
 Ga        15.4166588572       15.3483443331       28.9613944323
 Ga        15.2579535186       17.9425577713       10.2938803039
 Ga        15.4178360522       18.1166957572       15.4147695443
 Ga        15.4352565225       18.0518320216       20.8230326129
 Ga        15.4245042926       18.0407908973       26.2741091327
 Ga        15.4175561754       18.1059779955       31.6546125026
 Ga        15.3403160124       20.7933328723       12.7408975072
 Ga        15.4297241058       20.8067669482       18.1087510499
 Ga        15.4921232106       20.7856698294       23.5706320771
 Ga        15.4209827396       20.7899058317       28.9670809539
 Ga        15.3531230647       20.8087324432       34.3396584879
 Ga        15.3288425275       23.4341374217       10.0531781489
 Ga        15.3559828820       23.5090537074       15.4211027005
 Ga        15.4343160927       23.5095261863       20.7977137141
 Ga        15.4356471370       23.4943786919       26.2639014126
 Ga        15.3615279079       23.4942858112       31.6533463899
 Ga        15.3307383807       23.5749475222       36.9621636532
 Ga        15.3394241508       26.1887102610       12.7279935899
 Ga        15.4071591460       26.2568746875       18.1083722948
 Ga        15.4298166038       26.2074723609       23.4970700507
 Ga        15.4281320711       26.1925172706       28.9546911008
 Ga        15.3497140920       26.2599857405       34.2714689784
 Ga        15.3412768366       28.9554619550       15.4188843734
 Ga        15.3544656797       28.9557962942       20.8020555623
 Ga        15.4265106399       28.8969710210       26.1928004552
 Ga        15.4170877931       28.8934633712       31.6016633275
 Ga        15.2671016920       29.1239547206       36.7144364166
 Ga        15.3456247488       31.6524029427       18.1103156793
 Ga        15.3568699964       31.6487940087       23.4969173112
 Ga        15.4170826555       31.5885938728       28.8854349905
 Ga        15.5014357836       31.5610768324       34.5072601154
 Ga        15.3487271460       34.3414419296       20.8087181451
 Ga        15.3475283608       34.2655046267       26.2612344420
 Ga        15.5075447126       34.4459316565       31.5046476525
 Ga        15.3355528911       36.9625556779       23.5715264481
 Ga        15.2635311389       36.7150203047       29.1207634034
 Cl        16.7820890255        8.9141647922       16.7795218178
 Cl        16.9802002535        8.8110019146       21.9842419840
 Cl        17.3657100858        8.2494301807       26.9704842537
  P        16.5363412769       11.3024111838       13.8941457746
  P        16.7389685763       11.4329430058       19.3991460649
  P        16.8064048470       11.3117357144       24.7892707506
 Cl        17.0407272459       11.2065076086       29.9882311684
  P        16.5035258393       13.8823317235       11.3415033753
  P        16.7430404891       14.0721038921       16.7587480756
  P        16.7678918862       14.0537308788       22.1501717306
  P        16.7778402724       14.0169963067       27.5484863949
 Cl        16.9674370775       14.0956750217       32.8982292612
 Cl        16.7579258021       16.7703666720        8.9069237665
  P        16.7565506709       16.7245527578       14.1249267294
  P        16.7812501951       16.7550397111       19.4584127369
  P        16.7814015514       16.7417726750       24.8737870227
  P        16.7711515901       16.7283392822       30.2969575430
 Cl        19.9989821406       17.2809571091       38.7245021094
  P        16.7191676978       19.3606927537       11.4704669423
  P        16.7719991863       19.4578909168       16.7759501415
  P        16.7741732741       19.4437916277       22.1629707528
  P        16.7712807779       19.4366467215       27.5970936564
  P        16.7702310453       19.5040838124       32.9788571125
 Cl        17.2999093094       20.0103801279       38.7341477993
 Cl        16.9415622633       21.9595651062        8.8455950433
  P        16.7230219758       22.1265295506       14.0967429242
  P        16.7705083000       22.1537945660       19.4609383862
  P        16.7915856483       22.1621255004       24.9001827064
  P        16.7595876656       22.1833097911       30.2743322062
  P        16.7491782638       22.2250096874       35.6891646804
  P        16.7351750342       24.7702475486       11.3677524260
  P        16.7354918208       24.8505516225       16.7766937663
  P        16.7677400673       24.8515836668       22.1557471159
  P        16.7720945752       24.8635943082       27.5727712571
  P        16.7351095258       24.8862039278       32.9478385298
 Cl        16.9334108937       25.0483051602       38.2104091672
  P        16.7026458630       27.5455133661       14.0656463702
  P        16.7415749677       27.5777621474       19.4872600358
  P        16.7689453597       27.5438751947       24.8487267938
  P        16.7792493060       27.5536903006       30.2516308120
  P        16.7268525030       27.6618258850       35.5701589742
 Cl        16.9657810167       29.9809120558       11.2700799461
  P        16.7201589360       30.2910851005       16.7614031215
  P        16.7267416333       30.2545815988       22.1836264628
  P        16.7718594720       30.2303265228       27.5411884396
  P        16.7324774033       30.2781957856       32.9307336211
 Cl        16.7789996139       30.2661801593       38.1021386139
 Cl        16.8992628603       32.8869082601       14.1080485592
  P        16.7352832742       32.9757801355       19.4889532704
  P        16.7339771221       32.9445612870       24.8854260087
  P        16.7585703419       32.8815972283       30.2732025858
  P        16.5699242110       33.1509243804       35.6985259602
 Cl        17.0013922299       35.6913503303       16.9815325223
  P        16.7499886312       35.6860365406       22.2213425348
  P        16.7199924311       35.5490274789       27.6705835523
  P        16.5576499628       35.6597225902       33.1101063629
 Cl        17.3018263755       38.7364387234       20.0038918116
 Cl        16.9384708315       38.1717473271       25.0521576864
 Cl        16.7739332273       38.0993374390       30.2557297378
 Ga        17.9433224109       10.2872857150       15.2728885702
 Ga        18.1047919193       10.2143231187       20.7293879324
 Ga        18.1131239284       10.0345566883       26.1966589130
 Ga        17.9628484186       12.6498580864       12.6536940867
 Ga        18.0999599785       12.8066503649       18.1077662711
 Ga        18.1064684742       12.7364734866       23.5076680460
 Ga        18.1151508231       12.6592953464       28.8984360235
 Ga        17.8814847069       15.2576740084       10.2877241270
 Ga        18.1181367214       15.3537562623       15.4167846894
 Ga        18.1053026139       15.4285408684       20.8198357577
 Ga        18.1102816209       15.4066882576       26.2642963379
 Ga        18.1112865635       15.3476787556       31.6537984129
 Ga        18.1004220352       18.0436734911       12.8142085975
 Ga        18.1159620298       18.1123993581       18.1153426620
 Ga        18.1121565358       18.1075808982       23.5184302273
 Ga        18.1091143766       18.0471056113       28.9607796131
 Ga        18.1137142131       18.1094028612       34.2827313622
 Ga        18.0558568307       20.7220942768       10.2798678452
 Ga        18.1006874440       20.8064967356       15.4350729283
 Ga        18.1125296496       20.8035834088       20.8108329006
 Ga        18.1136764232       20.7914491602       26.2620919420
 Ga        18.1054675934       20.7996402873       31.5942664003
 Ga        18.0470407063       20.7992674743       36.9564125255
 Ga        18.0391267071       23.5036254302       12.8000553533
 Ga        18.1050743723       23.5099979235       18.1105061904
 Ga        18.1143410481       23.5000529611       23.5062646350
 Ga        18.1102892114       23.4982645424       28.9017945757
 Ga        18.0453036924       23.4995977090       34.2622546499
 Ga        18.0325995294       26.1952028866       10.1118153687
 Ga        18.0387197142       26.2557779309       15.4287188924
 Ga        18.1073054488       26.2071620883       20.8019006090
 Ga        18.1140754918       26.1948697243       26.1972543382
 Ga        18.1065447183       26.1897164808       31.5782194879
 Ga        18.0478744953       26.2879348879       36.7868894611
 Ga        18.0432104219       28.8959742038       12.7235857544
 Ga        18.0461958881       28.9580912132       18.1078448092
 Ga        18.1051445321       28.8942900755       23.4951378706
 Ga        18.1174515847       28.8883201952       28.8877778070
 Ga        18.1031008707       28.9516622482       34.1959576818
 Ga        18.0443038424       31.6486207607       15.3593956806
 Ga        18.0456140365       31.5886406394       20.8000332418
 Ga        18.1047791323       31.5739317383       26.1914426063
 Ga        18.1213043573       31.5888118624       31.6410184199
 Ga        17.9503620729       31.7475789588       36.7167625246
 Ga        18.1027565133       34.2789060427       18.1036564345
 Ga        18.0439076711       34.2565552234       23.4963945482
 Ga        18.1057604782       34.1866067343       28.9552725516
 Ga        18.0295598336       34.3533450569       34.3484261317
 Ga        18.0419336409       36.9588039514       20.7996522997
 Ga        18.0474028404       36.7291482399       26.2860635751
 Ga        17.9442271144       36.7125089554       31.7423656194
 Cl        19.2822446796        8.8527456042       14.2185601454
 Cl        19.4981956320        8.8646844009       19.4658596447
 Cl        19.7204023338        8.8345262285       24.6231180464
 Cl        20.0282869126        8.2574121108       29.7069652461
  P        19.1144752420       11.2182777218       11.2588919616
  P        19.3878138627       11.4514297974       16.7296557722
  P        19.4963653879       11.4628198615       22.0890708640
  P        19.5308303051       11.3100156680       27.5076814635
 Cl        19.7334187923       11.2450321066       32.7940467098
 Cl        19.2296342859       14.1666055449        8.8797796826
  P        19.4055722760       14.0234442550       14.0339583628
  P        19.4581710968       14.1248195597       19.4517329164
  P        19.4708659291       14.0687442173       24.8531588496
  P        19.4800237202       13.9941684000       30.2702388154
 Cl        19.7182274567       14.2143819866       35.7432169980
  P        19.3750075823       16.6931296564       11.4295240769
  P        19.4485283095       16.7416439819       16.7754435903
  P        19.4626860820       16.7709063288       22.1614385368
  P        19.4926479222       16.7423791152       27.5800436731
  P        19.4935315741       16.7348330907       32.9788190317
 Cl        19.4557511690       19.4619813361        8.8905480626
  P        19.4441104778       19.4079746430       14.1387521347
  P        19.4632395876       19.4594422643       19.4656220778
  P        19.4568582401       19.4626102939       24.8668175960
  P        19.4770679160       19.4473114579       30.2590669387
  P        19.5003320893       19.4971381400       35.6830610761
  P        19.4504759094       22.0797507162       11.5140462998
  P        19.4562911444       22.1509816019       16.7753643288
  P        19.4589739542       22.1520235534       22.1578556987
  P        19.4702971301       22.1601924904       27.5615549072
  P        19.4599284265       22.1755868613       32.9443443262
 Cl        19.6621351099       22.3742460763       38.1637298148
 Cl        19.6459700142       24.6229063963        8.8647493843
  P        19.4192054786       24.8417422918       14.1161771350
  P        19.4566363814       24.8497877195       19.4617302871
  P        19.4623083934       24.8485813051       24.8502013820
  P        19.4643198941       24.8523820849       30.2364344539
  P        19.4428587205       24.9313298315       35.5394665110
  P        19.4734768450       27.4992960631       11.3615628401
  P        19.4277133221       27.5663926642       16.7817498031
  P        19.4596283785       27.5442911746       22.1556594367
  P        19.4687467988       27.5415904107       27.5413000915
  P        19.4499172146       27.5735912949       32.8908840643
 Cl        19.4613644093       27.5579604965       38.1414215786
 Cl        19.9949480271       29.6552291337        8.2792704232
  P        19.4350248540       30.2566908328       14.0297688181
  P        19.4510445305       30.2585515062       19.4628957900
  P        19.4595776669       30.2332764768       24.8463954119
  P        19.4540889071       30.2318308428       30.2555634139
  P        19.3974889815       30.2986046439       35.5679371264
 Cl        19.7365892430       32.7222266184       11.2413900857
  P        19.4677235372       32.9529773087       16.7368645572
  P        19.4362066223       32.9318861797       22.1605895857
  P        19.4555472970       32.8771618061       27.5838683629
  P        19.4279568842       32.9638292397       32.9689522511
 Cl        19.2983870271       32.8306794582       38.1262016865
 Cl        19.7274733098       35.6683553667       14.1843803120
  P        19.4781471003       35.6918322540       19.4726112673
  P        19.4509796470       35.5187399914       24.9231984660
  P        19.3978794562       35.5651714129       30.2956486416
  P        19.1866069915       35.7817230973       35.7420873113
 Cl        20.0070908931       38.7194942030       17.2613194665
 Cl        19.6582688718       38.1559770735       22.3681265875
 Cl        19.4529752592       38.1157188911       27.5454011800
 Cl        19.2857284876       38.1409486290       32.8008991546
 Ga        20.5792913621       10.1118169866       12.5628147466
 Ga        20.7336986850       10.2745970266       18.1029291197
 Ga        20.8775706422       10.2653566727       23.4317280120
 Ga        20.8118973460       10.0390752031       28.9650613033
 Ga        20.5696175798       12.4941956820       10.1159877553
 Ga        20.8005883757       12.7352029017       15.3464105869
 Ga        20.8141595743       12.8766073013       20.8026500578
 Ga        20.8051544108       12.7395149589       26.2101839457
 Ga        20.8118666047       12.6541535423       31.6563450746
 Ga        20.7947724120       15.3362144038       12.7323410481
 Ga        20.8190849933       15.4317289602       18.1030940879
 Ga        20.8012914024       15.4369728134       23.5120486559
 Ga        20.8036892401       15.3552383064       28.9579168681
 Ga        20.8101192657       15.3469352982       34.3425796458
 Ga        20.7195743413       18.0396680957       10.2121185478
 Ga        20.8115394370       18.0386654881       15.4334019897
 Ga        20.8087055755       18.1140141788       20.8089962411
 Ga        20.8020424761       18.1086676891       26.2075059743
 Ga        20.8038919058       18.0462404447       31.5943509079
 Ga        20.7973727622       18.0432653669       36.9571620356
 Ga        20.7992838139       20.7441836892       12.8771856944
 Ga        20.8045066763       20.8035357458       18.1177331821
 Ga        20.8042553513       20.8037937649       23.5069244047
 Ga        20.8050180313       20.7980218906       28.8973192896
 Ga        20.7935311096       20.7904139452       34.2591685683
 Ga        20.8012021993       23.4275634570       10.2823020217
 Ga        20.7931889313       23.5038790585       15.4444304571
 Ga        20.8041485062       23.5014862315       20.8080149976
 Ga        20.8080932572       23.4998655242       26.1967496558
 Ga        20.8027623641       23.5019119553       31.5733633989
 Ga        20.8091892925       23.5732088068       36.7329700283
 Ga        20.7371296535       26.2050758347       12.8016901089
 Ga        20.7914832611       26.2063413012       18.1116761034
 Ga        20.8071106942       26.1967766612       23.5013373424
 Ga        20.8132709354       26.1963980562       28.8897202199
 Ga        20.8049026156       26.2517989002       34.1818033191
 Ga        20.7907376951       28.8900260615       10.0467021246
 Ga        20.7349387444       28.9463991807       15.4170847110
 Ga        20.7960909777       28.8934222409       20.7999678472
 Ga        20.8128549240       28.8915252651       26.1971925253
 Ga        20.8227484039       28.9049788654       31.5734627633
 Ga        20.7335736413       28.9594163204       36.7966960383
 Ga        20.8023784730       31.5838143144       12.6619465635
 Ga        20.7897149234       31.5861086457       18.0551260812
 Ga        20.7979378164       31.5734350349       23.4969841589
 Ga        20.8206166719       31.5693034472       28.9519750703
 Ga        20.8117705249       31.6584724264       34.2698348615
 Ga        20.8081105527       34.2777004389       15.3454457930
 Ga        20.7403735330       34.2497702581       20.7471961202
 Ga        20.8063068583       34.1713712031       26.2561300369
 Ga        20.8096041466       34.2679778352       31.6574910319
 Ga        20.6455202409       34.5044439848       36.8836408630
 Ga        20.8015578120       36.9525203506       18.0304637902
 Ga        20.8100858279       36.7270341040       23.5682486161
 Ga        20.7302408396       36.7938845652       28.9534841474
 Ga        20.6479674137       36.8910620692       34.4364331032
 Cl        21.9739723784        8.8467633495       16.9619950401
 Cl        22.2099639784        8.8903523970       22.1291375823
 Cl        22.3883581321        8.8332366338       27.3397434527
 Cl        22.7073769945        8.2978790069       32.4827708130