     691
 i =       89, E =    -24410.7561732829
 Zn        20.0734665907       25.7195132788       20.0586519760
 Zn        22.9387218965       28.5118991870       20.0678422492
 Zn        25.8667803826       31.2292301259       19.9831151539
 Zn        28.5890366851       34.2197416773       19.9811129133
 Cl        26.7415567673        7.3423584362       19.0609866342
 Zn        34.4743244657       22.4664554813       28.8266273556
 Zn         9.7858848232       14.0070624912       20.9372699545
 Zn        11.6963438895       17.5206619435       20.0677243640
 Zn        14.5520518319       20.1617107582       20.2060834374
 Zn        17.2751327903       22.9391078047       20.0849968471
 Zn        22.9335223154       25.7063327502       22.9305973308
 Zn        25.7266397773       28.5675686399       22.9403189711
 Zn        28.5051688925       31.4450146993       23.0016785026
 Zn        30.1029419698       34.1630924923       22.2987940207
 Zn        23.4851731042       28.1152577708        8.7601556485
 Zn        17.1946424451       14.4917238276       17.3606871854
 Cl        35.5837328862       19.0723903582       16.1398902263
 Zn        11.7126393849       14.4934810169       23.0010735040
 Zn        14.4332112978       17.2696462163       22.9999001296
 Zn        17.2754856182       20.0870854439       23.0075418177
 Zn        20.0720269648       22.9167737110       22.9338683174
 Zn        25.7364221864       25.7233831505       25.7932946812
 Zn        28.5771958375       28.6679862968       25.8936573250
 Cl        18.8434638015       35.4442307215       21.6766786140
 Zn        20.0656407225       17.2798381894       17.2177668311
 Zn        14.5810889500       20.0639574355       14.4194967220
 Cl        21.5349658293       18.6148499410       35.4546229436
 Zn        14.4947798052       14.3306805184       25.8918800551
 Zn        17.2205417950       17.2677974356       25.8511866795
 Zn        20.0686586749       20.0763260284       25.7950619668
 Zn        22.9280160920       22.8640945063       25.7902396710
 Zn        28.6601190518       25.7962700106       28.5993721457
 Zn        30.4098560044       29.1357117162       29.1448759836
 Zn        14.0033576714       33.2139111399       22.1279125758
 Zn        33.9193312576       25.4096958485       27.7869967437
 Zn        22.8496096946       14.5589761191       22.8470084086
 Zn        14.8045861760       11.7741655334       28.6650794531
 Zn        17.2761524632       14.4173648774       28.6791586712
 Zn        20.1385462254       17.2786684696       28.5875741424
 Zn        22.9342389719       20.0688596795       28.5880180542
 Zn        25.7910020343       22.9113851765       28.6028759935
 Cl        20.6413306709       13.4863934225        7.5161561477
 Zn        28.6677856765       14.4851502106       17.1127359255
 Zn        25.7040931366       17.2981999839       22.8610635119
 Zn        31.2942862153       19.9074455432       25.7170559164
 Zn        25.6525162647       20.0716719942       20.0711340250
 Zn        22.5447692640        8.9911318071       17.5075020250
 Zn        25.7976883925       11.6213158027       17.2810813405
 Cl        35.5083096927       16.3033379546       18.7171041313
 Zn        20.0718744239       14.4131230960       31.5173525044
 Zn        23.0080464094       17.1319566554       31.3042649124
 Zn        25.7070148895       19.9102591468       31.3585742270
 Zn        28.7487307606       22.8533579724       31.2941156702
 Zn        22.9399050966       22.9491183378        8.9074300253
 Zn        34.0740615857       28.0988816158       24.6168944383
 Zn        23.0237735338       14.4060476790       34.2342851905
 Zn        25.8928857338       17.2104501542       34.1538094310
 Zn        27.9638147670       19.2857732550       34.3237202418
 Zn        28.9126052626       22.3778665754       34.3999060518
 Zn        22.9318823537       11.7055256628       14.3311065357
 Zn        22.8710288856       20.1445946037       11.6940102238
 Zn        14.4967496386       11.5668347786       22.9962551925
 Zn        28.4366218616       23.1684040769        8.7646264885
 Zn        31.3048380855       28.3496226866       17.4463112149
 Zn        17.1755610824       20.0499259493       11.7093957208
 Cl        15.7708932478       19.1809724224       35.4105301012
 Zn        25.7958872867       14.4129862148       14.4000612473
 Zn        20.0755161500       22.9301976002       11.6359691709
 Zn        14.3211432309       14.7133207862       14.6498440507
 Cl        16.1581657105       24.2962302414        7.5286163365
 Zn        22.8642891483       17.2889898959       20.0517140290
 Zn        25.7129746462       17.2891766095       11.6324959249
 Zn        25.6375787723       17.2018175636       28.5835551989
 Zn        31.3005625938       23.0015500277       17.5112232245
 Cl        35.4476260214       20.6274794454       29.5773613984
 Zn        17.3654457674       11.6278724307       25.7377109628
 Zn        31.4423882621       14.5014008866       19.9992206354
 Zn        34.1524329573       17.3656482380       20.2993695544
 Zn        20.0730989107       20.1299199553       20.0767821789
 Zn        17.2711595679        8.9295001637       17.0255223280
 Zn        15.1254909549        9.0770716780       25.3936823557
 Zn        17.2016121868       17.4248805740       14.4216127940
 Zn        19.3448491885       15.0424391931        8.6878192736
 Zn        11.6885737128       14.6564062465       17.4449445604
 Zn        17.2833496493       17.3357494184       20.1424737613
 Zn        28.3481764557       23.0067362344       14.4188513461
 Cl        35.5320795581       23.7830712529       27.0127424588
 Zn        28.4145047635       28.5655852718       20.0763410509
 Zn        31.3696545437       17.4426536765       17.2869207549
 Zn        28.5088713831       20.0613450778       22.9357146330
 Zn        20.2101241291       14.4114062084       14.4054353352
 Zn        28.5163130146       20.1538572820       11.5293003109
 Zn        17.3591721271       22.7796596788        8.8380548450
 Cl        12.9564572447       11.5652826249       30.2743341902
 Zn        14.5532019301       28.5030990093       11.7050249677
 Cl        35.9806318006       14.0492254858       21.4782006944
 Zn        20.5278265739       34.4684102160       14.2366512930
 Zn        14.4911881054       17.3666248055       17.3526609111
 Zn        22.7626059495       28.6625795969       14.3550845700
 Zn        25.9593419214       31.0652809809       14.5677988433
 Zn        22.8636995311       22.9283650498       20.0703056982
 Cl         8.2249518339       27.7793602168       25.1350442986
 Zn        14.4044931651       25.8698328384       14.2656129850
 Zn        17.1881974076       28.6561315177       14.4154671832
 Zn        20.0004719123       31.3086713123       14.3295773090
 Zn        23.6581229656       34.3114322284       15.0442773172
 Zn         9.7162346547       20.9543865259       14.0107607088
 Zn        11.7092034858       22.9407917486       14.5070901370
 Zn        17.2180452208       25.7364862447       17.2091128354
 Zn        20.0630400868       28.5867665384       17.2678705592
 Zn        23.0857486223       31.2986629563       17.2921606547
 Zn        25.7931335033       34.0782441724       17.0462509931
 Zn        34.0056886558       22.9420395117       20.0506371257
 Cl         7.5590620088       22.3178897236       29.5785667435
 Zn        11.6999336778       20.0593038293       17.5182126482
 Zn        14.4236947731       22.9370475766       17.2702567163
 Zn        20.1485333820       28.4352610498       22.8614223949
 Zn        22.9272963395       31.2867964450       22.8470268914
 Zn        25.6425831485       34.1533186150       22.6981978103
 Zn        34.0767575239       22.5402362929       25.4887686439
 Zn         8.8293498091       17.5935114900       22.7725380637
 Zn        11.7005002448       20.1596191102       22.9879910906
 Zn        14.4856300257       22.9329553179       23.0058427514
 Zn        17.2813008753       25.7146198408       22.9206693761
 Zn        22.9106707831       28.4965848793       25.7291522533
 Zn        25.5751668918       31.3687634688       25.7176068071
 Zn        27.8779863635       33.9255506867       25.3323517376
 Zn        28.5888796572       22.9304536529       25.7908398354
 Zn        11.9420509965       11.7833432829       20.0063634440
 Zn         8.9269171968       14.8922643241       24.6136383149
 Zn        11.5640713480       17.1413776002       25.7861732001
 Zn        14.4009934825       19.9910510045       25.8798328191
 Zn        17.2610717619       22.9056329830       25.7988828226
 Zn        20.1357653576       25.6511787982       25.7313397681
 Zn        25.7834588804       28.5095271495       28.6716165849
 Zn        27.9602315679       31.1229021816       28.3647957632
 Zn        25.7195352621       17.2798253030       17.2144411400
 Zn        20.1385549825       11.7172712089       28.5023834529
 Zn        12.8111801140       13.6126579381       29.2097168409
 Zn        14.3400340273       16.9659082166       28.8289757774
 Zn        17.2037212037       20.0737891185       28.5919916079
 Zn        20.0746312515       22.8653871033       28.5936506331
 Zn        22.9181041248       25.6555558807       28.5940481094
 Zn        28.5007517195       28.6570827678       31.1218534646
 Cl        13.3932750779       22.4484295810       35.4675914370
 Zn        25.7210262195       14.4885774821       20.0511525431
 Zn        31.3090972309       25.5750211460       14.6497140518
 Zn        14.9670588368       14.2521739786       31.6019636050
 Zn        17.4341731932       17.4447356436       31.2928243794
 Zn        20.1476097168       20.0946704362       31.3760208157
 Zn        22.9238057853       22.8635557018       31.3644604030
 Zn        25.7876339462       25.7089778872       31.3724663032
 Zn        31.4507988195       25.7957729834       25.7189330686
 Zn        22.9384230509        8.9943328373       22.9549123592
 Zn        25.4851265316       11.7023094289       22.9308422991
 Zn        17.3813992569       14.3932869235       33.9985056941
 Zn        20.1356461480       17.2032243382       34.2335557679
 Zn        22.8620528272       19.9740068386       34.1615620247
 Zn        25.5042906958       22.6076346369       34.0762563785
 Zn        28.1879624410       25.3312212780       33.7578709600
 Zn         8.7698897159       30.0931583277       20.7743279423
 Cl        35.7360143310       26.7496062312       23.8849439983
 Zn         8.7738342497       28.5785512389       23.0942544239
 Zn        11.7231598731       31.0691796770       23.0097376537
 Zn        28.5205011265       17.2902750213       14.3353727995
 Zn        31.2219718755       20.1478984928       14.4933752214
 Zn        25.7040034189       20.1462027446       14.4164800889
 Zn        25.5660003353       11.6286782172       28.3421078273
 Zn        25.5647808776       20.3033468186        8.8431216832
 Zn        17.2790303608       14.4815174527       22.9335102026
 Zn        33.2071745746       22.1275470727       13.9361827866
 Zn        25.6253184759       26.0581230320        8.9113800613
 Zn        31.0499648538       17.0333759133       28.4958774104
 Zn        34.2294850605       25.4076324638       22.7645207990
 Zn        31.0698981073       31.2232287345       20.0613434485
 Cl        30.3137303691       12.7703303822       11.8723900324
 Zn        22.6245454644       17.5210162250        8.9898040055
 Zn        25.4078845412        8.8317962868       20.2260033501
 Zn        28.5015302024       11.7161225971       19.9951587289
 Zn        34.2202724550       14.4152855237       23.0191866057
 Zn        28.6126220733       20.2019937035       28.6026290926
 Zn        28.3451873212       14.3178399595       28.3517121886
 Zn        28.5683649002       14.5856023056       22.9270369382
 Zn        34.0738698075       17.2117817210       25.9651601643
 Zn        25.7855882495       23.0862728561       11.7079624263
 Zn        28.4337828893       22.8539971663       20.1582362907
 Zn        31.0518903530       23.1054053004       11.7220830151
 Cl        18.8320801277       21.5148444549       35.4670213775
 Zn        18.3146837430        9.0750049675       28.1913061309
 Zn        31.3022214235       25.4892703689       20.0710745416
 Zn        34.1637282427       20.2917914629       17.5196466644
 Zn        12.0205756658       28.6545771667       14.2638608023
 Zn        14.0012210827       30.6332437315       14.1637999364
 Zn        17.5885347629       33.9123850119       15.2836113550
 Zn        31.2867851149       20.0736808678       20.1618400327
 Zn        22.8647308841       20.0810248788       17.2189042619
 Zn         9.0737554996       24.7686894744       14.8861214654
 Zn        14.3416703257       28.5094998801       17.1997966037
 Zn        17.2047953144       31.3951386229       17.3531014615
 Zn        20.4541407954       34.0711809215       17.5334896518
 Zn        28.3496663401       11.6937473340       25.5524971502
 Zn         8.8374713627       22.7853322637       17.5872272056
 Zn        11.5771657362       25.7019213211       17.2169342643
 Zn        17.2726809642       28.5119638367       20.0784176635
 Zn        20.1619555209       31.2990735243       20.1283012279
 Zn        23.0137410187       34.0828654611       20.0776112941
 Zn         8.9983729232       20.0646655913       20.0587547439
 Zn        11.7083653741       22.9420269686       20.2140848523
 Zn        14.4187516999       25.7170479207       20.0883865344
 Zn        20.0611443182       31.2941227346       25.5487550182
 Zn        22.7775289281       34.1682087193       25.4902077587
 Zn        31.2980068675       22.8404378567       22.9313821069
 Zn         8.9264082459       20.4480882675       25.4976119054
 Zn        11.7017855012       23.0806089759       25.7328470104
 Zn        14.4784661763       25.8067558780       25.7030976972
 Zn        17.3566061298       28.4961294611       25.7065333454
 Zn        22.9253860778       31.2209150729       28.5175908528
 Zn        24.6722275518       33.9188648986       28.2587223157
 Zn        22.9205562748       17.2734878713       14.4116633838
 Zn        20.0673136537       22.9435997464       17.2120999133
 Zn        22.9406972549       25.7843466769       11.6411720572
 Zn         9.0767346821       17.5243489130       27.7901172365
 Zn        11.6401088742       19.9951234543       28.6736919365
 Zn        14.3420768293       22.7738461627       28.6557748606
 Zn        17.3620689063       25.7356760868       28.5936286019
 Zn        20.0621349855       28.3418568211       28.5891700015
 Cl        23.9321065534       15.8878685384        7.6371013435
 Zn        22.4510478053       14.1592798359        8.6020596179
 Zn        25.3944468687       14.8828144310        9.2509922098
 Cl        21.5832809076        7.5653180979       24.1764237909
 Zn        14.2446970257       20.0781193720       31.2889531832
 Zn        17.2867033567       23.0182845164       31.3530274341
 Zn        19.9957586475       25.7893338708       31.2955492506
 Zn        22.9293895081       28.5129490363       31.4685342170
 Zn        28.1165657872       17.9171377934        9.0011067008
 Zn        30.1724102535       21.0078018757        8.7650326831
 Zn        22.9474130917       14.5833175691       28.5841263664
 Zn        14.8067696350       17.6935502053       33.7521084811
 Zn        17.4525599027       20.3664789707       34.0804381018
 Zn        20.0745478786       22.9360145794       34.1553905553
 Zn        22.7691363131       25.5645335523       34.1635720925
 Zn        25.1668907393       28.1106363749       34.0005369391
 Zn        14.4760160897        8.8347469372       19.9110372470
 Zn        20.0489774095       20.1347791008        8.8532880476
 Cl        15.2784286957        8.2136296366       17.8985130404
 Zn        20.0612080578       25.8020648015       14.4141174109
 Zn        22.8709000643       25.7851947667       17.2198306126
 Zn        19.3542606790        8.7563425027       14.9604739385
 Zn        25.7072269666       25.7159738397       20.1429829738
 Zn        17.1345852004       11.7862722572       19.9823199470
 Cl        12.0839021570       30.6132337115       12.8250703111
 Zn        28.5167415794       25.7312405376       22.9806929430
 Zn        11.6275319163       17.4525955078       14.6586798198
 Zn        19.9857071254        8.9183302320       20.0712154994
 Zn        28.6643423212       14.5800529402       11.9278448793
 Cl        24.1615470001        7.5621076812       21.5939052095
 Zn        25.6473970018       14.4942028464       25.6478254088
 Zn        25.6421725102       22.9228351068       17.2812866977
 Cl        21.4216900359       35.4490947309       24.2443275034
 Zn        28.5191750316       17.1936623909       25.6400395492
 Zn        20.2303310616        8.8333685588       25.4717160134
 Zn        19.9077964776       11.7156756227       17.2780491027
 Zn        20.0570526601       17.2931357755       22.9355318168
 Cl        21.5179148419       24.1180332418        7.5628554113
 Zn        20.3101391474       25.5763576638        8.8277416277
 Zn        34.2518250776       19.3299013077       28.0257656071
 Zn        25.8006722875       28.5197371602       17.3602030391
 Zn        23.0834527626       11.8716232031       31.2223330146
 Zn        22.5197908454        8.5945170831       14.1680555773
 Cl        18.6650005972        7.5537133849       21.3528782391
 Zn        29.1338882978       12.6548339621       13.8614502107
 Zn        31.1283631989       15.0608006749       14.6397875891
 Zn        33.9173199084       18.3951949931       14.8015979588
 Zn        34.0827965421       19.9851964903       22.9302368963
 Cl        19.3954115556       27.0508751234        7.2707426595
 Zn        28.4252882834       17.0313506732       31.1123500419
 Cl         7.4730848364       19.1805373241       27.0141533894
 Zn        14.8966487506       34.0089431839       18.4002789381
 Zn        28.4958551445       25.6536788817       17.3544300420
 Zn        28.4981538289       20.1445772280       17.2806009920
 Zn        22.8589680113       14.3264334149       11.7062370975
 Zn        31.2960401920       28.5016467006       23.0006916404
 Zn        22.9939110006       11.6990335630       25.4862240246
 Zn         9.0164460756       27.8693471016       17.6619631781
 Zn        14.4969884576       31.2831278573       20.0746162220
 Zn        17.5912551616       34.1720322255       20.3021410527
 Zn        22.8695657691       20.1251548704       22.9275373445
 Zn        22.9302911951       14.4317338840       17.2143411392
 Zn        28.9929893609        9.7853899508       22.0524010107
 Zn        31.2222674979       11.9319597740       22.9378455713
 Zn        17.0430351732       14.5823655906       11.9360753487
 Zn         8.8514600084       25.6435513304       20.3125722365
 Zn        11.5361721336       28.5035887190       20.0644617379
 Zn        17.5169349177       31.2980586783       23.0081179802
 Zn        20.0631327516       34.0054362680       23.0163763514
 Cl        24.1459558312       21.4520624112       35.4454988895
 Zn        14.4203387975       22.9379123566       11.5464828006
 Zn         8.9166640308       23.0157824209       22.9408163627
 Zn        11.7634978733       25.8684979825       23.0851574549
 Zn        14.4259830037       28.4082754217       22.9429853842
 Zn        20.9400004281       33.2060467953       29.0736782402
 Zn        25.4201771114        9.1598563394       15.2078664819
 Cl        16.2823134300        7.5054813424       24.2722081288
 Zn        33.9254336120       15.1292347097       17.6682582371
 Zn        17.3665654191       25.7228467900       11.6348864271
 Zn         8.7523089849       23.6421183704       28.0390924696
 Zn        11.9449780973       25.9609046673       28.5090850205
 Zn        14.6582045637       28.6751151982       28.4174919407
 Zn        17.4413653234       31.3079501310       28.3615188380
 Cl         7.5520020732       21.6005731283       24.1560582090
 Zn        31.3609349873       22.9271511984       28.6648625258
 Zn        22.1166441494        9.7150015334       28.9986687687
 Zn         8.5238480868       20.4694446984       28.8265573863
 Cl        27.7825672263       34.7928674745       17.9606430878
 Zn        14.5775284218       25.9574874689       31.1273529300
 Cl        20.6903181230        7.5972385715       13.4126499277
 Zn        19.9761218246       31.0590929692       31.2743769792
 Zn        17.3587403530        8.8480483249       22.7021343009
 Zn        12.7334648608       22.1433154456        8.8357937375
 Zn        14.0185187184       20.6149287905       34.4018456197
 Zn        15.0348986315       23.6574498329       34.3194517950
 Zn        17.1029465102       25.7181442583       34.1532829339
 Zn        19.9863058526       28.5075640390       34.2425266061
 Zn        14.8162530267       25.2334146567        9.0731934292
 Zn        20.0586353030       20.1365450144       14.4220178428
 Zn         8.9246508574       25.7860855742       26.0311560161
 Zn        14.5868143865       14.4791140712       20.0818153886
 Zn        28.1023743516        8.9953178880       18.3257851342
 Zn        34.1629083302       12.8989637109       20.7012267237
 Zn        20.0674553702       28.7468788808       11.6235912216
 Cl        24.9985808167       15.2736720682       34.9364943862
 Zn        14.6480511196       31.3011412378       25.5687808472
 Zn        20.0631778942       11.7148251288       22.8483468495
 Zn        14.4231851547       19.9715551969        8.7754846433
 Zn        25.7150273500       22.8981555014       22.9478336108
 Zn        33.2163337998       28.9905441822       20.9395084224
 Zn        22.8681423573       22.9432889950       14.4195496787
 Zn        28.6648314357       28.3490404708       14.6497410394
 Zn        17.0374564755       11.9545317134       14.5076816939
 Zn        19.9155522650       17.3505442292       11.7011779821
 Zn        11.8650843933       19.9802340041       11.7826404447
 Zn        17.2188171492       22.9367617531       14.4170234527
 Zn        17.2815411273       20.1452869647       17.2790639748
 Zn        20.0482248875       14.4961027699       20.0601471339
 Zn        20.0834489698       14.4871120367       25.7235145107
 Zn        22.8747362423       17.2996540297       25.7197235909
 Zn        25.7288306485       20.0707360607       25.7813292826
 Zn        28.5218863066       17.2868608114       20.0611196035
 Zn        17.2731632407       17.1099592874        8.9139971219
 Zn        16.7276873806       29.2236131295        9.6450601671
 Zn        25.7276855349       25.6544331430       14.4216764750
 Zn        22.7933203575       11.7111226996       20.0710650503
 Zn        31.2259640453       17.1353121116       23.0155977259
 Zn        25.8871659369       28.5013665711       11.9386737509
 Cl        23.8210032841        7.5383483525       15.9761628658
 Zn        20.2218569111       28.8350850277        8.3711370179
 Zn        12.9741256368        8.8372511671       22.2329266344
 Zn        22.1417015493       30.2468465439       34.2294661433
 Zn        20.8703618376       12.6661638407       34.1631195952
 Cl        35.4717599301       24.1495730865       21.3808961722
 Se        30.1020340145       16.2240625113       12.8822147415
 Cl        16.5937252273       24.2662010368       35.9007389316
 Cl        30.3035536357       30.2968870167       31.1526726344
 Se        33.3019708040       29.8600267525       23.2627416854
 Se        29.7992603577       21.5463482776       13.0634453166
 Se        13.1477758848       33.2875539886       19.7991801064
 Se        18.6587395765       24.3537761126       15.8015537093
 Se        27.0334682583       13.1351330725       24.1916599204
 Se        21.4812656128       21.5209642560       15.8188541744
 Se        10.2538454859       18.7892186651       13.1021023098
 Se        15.8433329061       18.6785500411       24.4150893164
 Se        30.0134901914       15.9249619349       18.6119890506
 Se        24.2251450754       13.1419372049       21.4198561823
 Se        29.8559812982       24.2381529736       21.5804258023
 Se        18.6890506166       21.5128184662       24.3888685917
 Se        19.7951073800        9.7388668006       29.8866270652
 Se        18.6986873360       10.2262873988       24.2087996336
 Se        15.8546536792       21.4337291506       10.1700808780
 Se        18.6849926301       18.7409474164       21.5391128116
 Se        21.4330124213       13.0790012354       18.6040799140
 Se        24.3479957390       29.8444056572       15.8576654674
 Se        13.0607599995       32.6468523007       24.2567557255
 Se        29.9041386968       13.1980418594       21.3882395014
 Se        21.5479719146       24.2707115573       24.3385736012
 Se        18.8135088781       29.8490666723       27.0839215582
 Se        14.7857629271       25.8687460739       33.4612692753
 Se        24.3321240059       27.0991084864       18.6807190956
 Se        13.2266797189        9.9285521749       24.2910235100
 Se        29.8475498967       18.6318348145       27.1550533820
 Se        29.9447715009       21.4406182515       24.3848010855
 Se        15.9676470673       27.1376782552       27.1301734151
 Se        10.3396583148       13.0908660132       18.7841551044
 Cl         7.4159419067       23.9783235502       16.2089301795
 Se        27.0746201772       21.6525816075       10.1688452708
 Se        24.2021721329       10.2639931494       18.6674883201
 Se        18.6920055158       21.5525977063       18.6701519155
 Se        18.7654323598       29.8609875441       21.4763920525
 Se        18.6478456990       15.9057973043       24.3662273752
 Se        13.1461553986       21.5353840786       13.0847930066
 Se        29.9229618594       18.6265957273       21.5489364546
 Se        15.8705110349       15.9946730069       15.9280995614
 Se        27.1522661303       15.8924690476       15.7926864895
 Se        18.5565422359       10.2608058011       18.6348331234
 Se        27.2920435597       29.9903579500       18.5373881930
 Se        27.1653180749       27.1391725350       27.2049372605
 Se        13.1183027852       18.7934234578       15.9526331968
 Se        29.9654903174       18.9798142728        9.9095155915
 Se        15.4895074893       13.2081684767       13.1491789587
 Se        18.6679929195       27.1323196594       18.6402728755
 Se        21.4681943661       13.1351405361       24.2310946087
 Se        24.3040992921       15.8794919612       18.6292951680
 Se        21.5589468693       29.9558526462       18.6504574492
 Se        24.3431351015       24.2750722671       32.7996149256
 Se        21.4485373954       10.2632274281       21.4707816428
 Se        27.1399730839       24.3036034554       24.3831271665
 Se        15.8772592655       27.0988418731       21.4882073007
 Se        15.9249262036       13.0043609730       24.3539662179
 Se        21.5134042573       13.1569449724       29.9297230126
 Se        24.4615401834       32.7543597620       18.6515976190
 Se        27.1104012878       18.7467441837       12.9579490376
 Se        27.1279311391       27.2313728743       32.8973574619
 Se        12.9707404268       18.5043544003       27.2789864709
 Se         9.7820121988       18.7171568511       29.6827684776
 Se        24.3103892545       24.2818753744       21.5209734632
 Cl         7.5556986973       24.3345718792       21.6566416810
 Se        23.0915777647       12.0714919882       33.5400620792
 Se        26.8440348751       30.0784819761       30.1410782853
 Se        15.8300319298       27.1594368136       15.8019746414
 Se        10.2289541781       18.7792778846       24.3737472173
 Se        32.9858932054       16.2793778375       15.7368279180
 Se        24.4644262260       15.7290005707       30.0409352538
 Se        24.3575024567       24.4090909938       10.2249572429
 Se        16.1368348132       16.1080744588       32.7808048225
 Se        27.0631694611       21.4375899520       21.5449545051
 Se        24.2358330144       13.1227173436       27.0466482733
 Se        12.9942480476       18.9769505236       33.1150244573
 Se        27.1707717747       21.2827046259       32.9002772799
 Se        18.6837259052       27.2399870298       12.9969626766
 Se        24.3099517879       18.6716538287       27.1551666171
 Se        18.6454532611       21.5205264235       13.0112841615
 Se         9.8952494721       29.7728299198       18.7509452861
 Se        16.1879089946       32.5907850560       21.4713979285
 Se        21.5305784743       15.8728680374       15.8325204875
 Se        29.8575128744       24.2258930762       15.9549015747
 Se        10.2487704188       24.3250105580       18.8145809839
 Se        21.4958703669       21.5134733316       10.2375738269
 Se        19.9537074767       30.8594526392       33.5926275193
 Se        15.8143651728       21.7000660423       32.8926506073
 Se        29.9240093388       10.3476490648       24.1885837717
 Se        18.6328750062       30.0433253131       15.8900386912
 Se        24.2796806972       18.7340112805       10.2303358732
 Se        10.2673611776       21.5387149145       21.5691058930
 Cl        14.1193000640        7.0351084840       21.4194556635
 Se        13.1880411656       13.1054065388       21.5847043237
 Se        12.8366625157       21.5458010906       30.0631687899
 Se         9.7245701576       23.2948588225       13.1528277998
 Se        32.7980661667       24.1976814861       24.3239080117
 Se        29.8468804715       30.2991779709       27.2128273091
 Se        13.0950132988       15.8062006589       24.4479684084
 Se        29.9662583443       24.0098517747       33.1110059626