    1116
 i =       73, E =    -42787.1546528257
 Cl         9.5143537682       15.1389427440       20.6078139716
 Cl         8.5701302255       15.8226725100       26.0939107520
 Cl         9.5548289366       17.9438332548       17.9537749351
 Cl         9.3560420218       18.2190752905       23.6587450978
 Cl         8.5447626652       18.8376609562       29.1121783010
 Cl         9.5196794086       20.6101547388       15.1511754050
 Cl         9.4670587677       20.9425881486       20.9468847104
 Cl         9.2731590475       21.3095812211       26.6784260464
 Cl         8.5450893860       21.8684473078       32.1054997190
 Cl         8.6949396115       22.9955210289       12.7499743522
 Cl         9.3668239168       23.6472796144       18.2079972620
 Cl         9.3987017089       23.9578105792       24.0000508275
 Cl         9.2853156683       24.2963354685       29.6867529980
 Cl         8.5617001479       24.9107943751       35.1829363289
 Cl         8.5786754956       26.0466900334       15.8149881202
 Cl         9.2318130939       26.5772393379       21.3412298216
 Cl         9.4027971477       26.9925739652       26.9872359441
 Cl         9.3057695994       27.3346537696       32.7610050433
 Cl         8.6938846642       28.0078205636       38.2615188923
 Cl         8.5238103052       29.0762621051       18.8692501785
 Cl         9.2806749811       29.7035683274       24.2951204540
 Cl         9.4047705256       30.0533965840       30.0533617353
 Cl         9.5215233575       30.3870513481       35.8612998664
 Cl         8.4847949886       32.1037233012       21.8699260655
 Cl         9.3028828445       32.7531236637       27.3299544088
 Cl         9.5416560478       33.0262939437       33.0366521924
 Cl         8.5589156926       35.1857671175       24.9155511943
 Cl         9.4647220411       35.8373855685       30.3278662324
 Cl         8.6962371456       38.2480050277       27.9159557622
 Ga        10.5308846547       13.3148952787       22.1091349214
 Ga        10.8490097945       16.3143847539       19.1775450818
 Ga        10.4446936353       16.4078707023       25.3593753908
 Ga        10.8514543650       19.1761032132       16.3177202654
 Ga        10.6874839594       19.4297659090       22.3578940536
 Ga        10.4430437360       19.4378946742       28.4702388042
 Ga        10.5327742865       22.1081468835       13.3144020595
 Ga        10.6956333425       22.3508687446       19.4324298532
 Ga        10.6227786524       22.5212539350       25.4497673030
 Ga        10.4359674635       22.5321875119       31.4944895961
 Ga        10.4437774194       25.2942297133       16.4144969353
 Ga        10.6160590174       25.3782037986       22.5232122669
 Ga        10.6234329313       25.5527525051       28.4736821660
 Ga        10.4410056073       25.6319339732       34.5943187286
 Ga        10.4462361624       28.4703143349       19.4283663828
 Ga        10.6204151874       28.4736413844       25.5507258212
 Ga        10.6245083260       28.6459963492       31.5682974254
 Ga        10.5305143559       28.8897536718       37.6823901253
 Ga        10.3721673553       31.4893569101       22.5363778816
 Ga        10.6231002660       31.5623743647       28.6427039989
 Ga        10.8509305103       31.8211290077       34.6785082227
 Ga        10.4383433118       34.5854328932       25.6263356685
 Ga        10.7868449955       34.6790014067       31.7577293864
 Ga        10.5260819730       37.6854919103       28.8191362477
 Cl        12.7560334574        8.6895152436       22.9853373684
 Sb        11.7263002658       11.7288683494       20.4819163459
 Cl         8.6940428653       12.7436696104       22.9957212158
 Sb        11.9059045148       14.6666805337       17.5885443139
 Sb        11.8560786515       14.8585530417       23.8442818638
 Cl        11.9887991059       15.2490066967       29.6624192471
 Sb        11.9108327840       17.5887322937       14.6692171664
 Sb        12.0606464894       17.8851992442       20.8803531886
 Sb        11.8647022167       17.9238082076       26.9410795442
 Cl        11.9561300020       18.3089815684       32.6834045440
 Sb        11.7225140098       20.4802025373       11.7250249363
 Sb        12.0737319526       20.8370549035       17.9199459123
 Sb        12.0177643119       20.9635733333       23.9561775348
 Sb        11.8623519310       20.9851455791       29.9914615899
 Cl        11.9863313786       21.3326550234       35.7461533995
 Cl        12.7478472636       23.0004256626        8.6960454543
 Sb        11.8757952647       23.8125132923       14.8657421302
 Sb        12.0488649317       23.9140136372       20.9813887494
 Sb        12.0429188442       24.0273711222       26.9692017226
 Sb        11.8350045174       24.0391306339       33.0646180657
 Cl        12.1091381107       24.4136601005       38.8910998115
 Cl        12.0973427541       26.5718601620       12.1181996840
 Sb        11.8539746225       26.9185373331       17.9190249424
 Sb        12.0096618419       26.9732890816       23.9933112257
 Sb        11.9941879417       27.0722089280       30.0203515293
 Sb        11.8532508752       27.1531156758       36.1360389322
 Cl        12.7477128959       28.0086057318       42.3083100933
 Cl        11.9819258405       29.6644378295       15.2619255039
 Sb        11.8411616838       30.0007607651       20.9891545324
 Sb        11.9944718615       30.0157334012       27.0694313858
 Sb        12.0489926629       30.1169637477       33.0879124270
 Sb        11.7302838535       30.5130720732       39.2693058467
 Cl        11.9646698902       32.6902520951       18.3008108299
 Sb        11.8172403261       33.0533388550       24.0261283512
 Sb        12.0428441015       33.0802187626       30.1105269355
 Sb        11.9095255644       33.4092277628       36.3295747374
 Cl        11.9952552086       35.7570126184       21.3333816456
 Sb        11.8551631730       36.1051197938       27.1469815186
 Sb        11.8447651478       36.3011070391       33.3821920295
 Cl        12.7410040529       42.2386559725       27.9343146853
 Sb        11.6938108504       39.2670094179       30.4650971283
 Ga        13.3143114881       10.5333189161       22.1077675241
 Ga        13.3820220026       13.3834181417       19.3317175674
 Ga        13.3849142002       13.3814945575       25.4406990273
 Ga        13.3124121112       16.5507278679       16.5548275005
 Ga        13.4659434613       16.3939867992       22.5095179818
 Ga        13.3828965476       16.3982569331       28.5472760632
 Ga        13.3803303385       19.3308148070       13.3799594748
 Ga        13.5677203553       19.4284018114       19.4908461499
 Ga        13.4578276322       19.4216869299       25.5348139303
 Ga        13.3819849527       19.4240723395       31.5755171020
 Ga        13.3113262620       22.1055554966       10.5308730068
 Ga        13.4659942142       22.4480385733       16.4024936943
 Ga        13.5535713437       22.4473877387       22.5099086195
 Ga        13.4570173854       22.4468413522       28.5524229736
 Ga        13.3801344057       22.4509678136       34.5996973058
 Ga        13.3806832535       25.4421082394       13.3849867979
 Ga        13.4571429657       25.5272125152       19.4216523998
 Ga        13.5515195061       25.5248381009       25.4680767175
 Ga        13.3957564564       25.4692792813       31.5757941780
 Ga        13.3804453851       25.5530692082       37.6180881300
 Ga        13.3789429651       28.5419333682       16.4006704380
 Ga        13.4521431522       28.5550815506       22.4419583507
 Ga        13.5443044990       28.4886957644       28.4909294530
 Ga        13.4605429663       28.4911083438       34.6002152374
 Ga        13.3170948693       28.8903508662       40.4687439690
 Ga        13.3788494427       31.5750675776       19.4245329547
 Ga        13.3903205657       31.5746807949       25.4661835928
 Ga        13.5442744717       31.5022772423       31.5029310847
 Ga        13.3837766094       31.6653328583       37.6144371213
 Ga        13.3775412864       34.5953116521       22.4486128887
 Ga        13.4650568600       34.5930024234       28.4963964307
 Ga        13.3044410814       34.4608568651       34.4449494536
 Ga        13.3834519273       37.5512723127       25.5501687966
 Ga        13.3119123145       37.6130831510       31.6658419001
 Ga        13.3057712048       40.3984714713       28.8205544861
 Cl        15.1483964755        9.5214505205       20.5937943210
 Cl        15.8223986983        8.5740293384       26.0372806399
 Sb        14.6673842781       11.9257227997       17.5809347511
 Sb        14.8673625666       11.8757192325       23.8107238423
 Cl        15.2651742186       11.9797042284       29.6608624565
 Cl        15.2366955875       15.2172913687       15.2081660243
 Sb        14.8994384880       14.9143533154       20.9101341216
 Sb        14.8768931664       14.8710886632       27.0032683521
 Cl        15.1585417891       15.1546275134       32.7556088174
 Sb        14.6491620545       17.5873069208       11.8953048883
 Sb        15.0239793204       17.9426650830       17.9666189343
 Sb        14.9503342757       17.9323303212       24.0091404220
 Sb        14.8782009046       17.9186486505       30.0493723758
 Cl        15.1562000649       18.2436346176       35.8440044173
 Cl        15.1364000448       20.6082121500        9.5179041299
 Sb        14.9051944280       20.9162399152       14.8881366860
 Sb        15.0270106554       20.9596325530       20.9951501394
 Sb        14.9452757647       20.9541704745       27.0261808208
 Sb        14.8768473090       20.9495043395       33.0803979933
 Cl        15.2626823424       21.3337400151       39.0202941563
 Sb        14.8509234000       23.8305048441       11.8650243379
 Sb        14.9489075409       23.9834667321       17.9394788329
 Sb        15.0250936996       23.9902721819       23.9890736574
 Sb        14.9248745936       23.9830419984       30.0562882940
 Sb        14.8703228662       23.9920187374       36.1265843301
 Cl        15.8313252298       24.9076553051       42.4329002096
 Cl        15.8214505167       26.0611778635        8.5771955028
 Sb        14.8714302277       27.0041833674       14.8728268936
 Sb        14.9422882496       27.0250340346       20.9507751131
 Sb        15.0294713303       26.9977266108       26.9940302584
 Sb        14.9309862284       26.9815198859       33.0586778049
 Sb        14.8595348289       27.1546799129       39.1422684223
 Cl        18.8611230085       29.1131187637        8.5352088780
 Sb        14.8742947325       30.0471023171       17.9185775060
 Sb        14.9226987551       30.0541245259       23.9823994291
 Sb        15.0166353173       29.9849193047       30.0093587950
 Sb        14.8978461429       30.0675983018       36.0904255082
 Cl        15.1480946506       30.3880410982       41.4791218543
 Cl        15.1613632378       32.7549202663       15.1489719260
 Sb        14.8756716202       33.0779137846       20.9474076701
 Sb        14.9304899692       33.0246123380       26.9991885334
 Sb        14.9689388734       33.0208004258       33.0213018954
 Sb        14.6704152800       33.4078307166       39.0852844255
 Cl        15.1628099540       35.8438768802       18.2366003282
 Sb        14.8834337305       36.0774381669       24.0075402255
 Sb        14.8744800275       36.0846292511       30.0935010695
 Cl        15.2250366024       35.7666189292       35.7388176277
 Cl        15.2462650507       38.9946068586       21.3823195319
 Sb        14.8689475940       39.0801864501       27.1524850309
 Sb        14.6271903446       39.0504353850       33.4202807245
 Cl        15.8047929372       42.4182512134       24.9558551995
 Cl        15.1050816643       41.4588103747       30.3765336757
 Ga        16.3162889682       10.8566881253       19.1702973709
 Ga        16.4149223671       10.4447309324       25.2948348851
 Ga        16.4851467205       13.3824071474       16.4806058616
 Ga        16.4022924888       13.4675374089       22.4462165569
 Ga        16.4030613818       13.3786656379       28.5420690598
 Ga        16.4839349151       16.4828673024       13.3184039296
 Ga        16.4786934879       16.4170734739       19.4998344420
 Ga        16.4067533489       16.3994998657       25.5451979107
 Ga        16.4024630782       16.4017165457       31.5778093825
 Ga        16.3123540977       19.1743103788       10.8504694315
 Ga        16.4210650981       19.4978740886       16.4282080545
 Ga        16.4863707278       19.4266436586       22.5177737804
 Ga        16.4045421168       19.4145854137       28.5648262169
 Ga        16.4017478784       19.4215778029       34.5985320696
 Ga        16.3950261072       22.5085391719       13.4660356584
 Ga        16.4806760667       22.5153831918       19.4860181730
 Ga        16.4788366806       22.4508775838       25.5340822586
 Ga        16.4002212984       22.4364745452       31.5837843380
 Ga        16.3990904092       22.4517137901       37.6177613258
 Ga        16.4142698275       25.2973984088       10.4403271250
 Ga        16.3966406636       25.5443305295       16.4039540126
 Ga        16.4790872318       25.5335406402       22.4479011775
 Ga        16.4746918146       25.4640375211       28.5560952849
 Ga        16.3969749791       25.4505744495       34.5974882941
 Ga        16.4080298504       25.6407703906       40.5548037891
 Ga        16.3990708093       28.5441361413       13.3806251031
 Ga        16.4022021095       28.5656549820       19.4148839741
 Ga        16.4753353401       28.5548066272       25.4645636508
 Ga        16.4759694841       28.4776790077       31.5700641744
 Ga        16.3943736644       28.4927919042       37.5344157877
 Ga        16.4000382565       31.5783636009       16.4023744169
 Ga        16.3991733928       31.5821653966       22.4353418630
 Ga        16.4780051554       31.5064148115       28.4809848237
 Ga        16.4081270653       31.4938793564       34.5264852587
 Ga        16.3203155340       31.8228769686       40.1477421305
 Ga        16.4013020780       34.6007485125       19.4243117589
 Ga        16.4017838448       34.5343901026       25.4589774523
 Ga        16.4105593411       34.5228090013       31.4951778059
 Ga        16.5559520861       34.4493636785       37.6869388821
 Ga        16.4003694672       37.6170669581       22.5165462219
 Ga        16.3968119082       37.5250164756       28.5530217969
 Ga        16.4762177171       37.6125067606       34.5145529833
 Ga        16.4116834434       40.5561372199       25.7063521108
 Ga        16.2472641744       40.1423656838       31.8261599422
 Cl        17.9517046916        9.5582306060       17.9350002478
 Cl        18.2237776885        9.3555534941       23.6385176297
 Cl        18.9096147529        8.5411596620       29.0522666616
 Sb        17.5832085935       11.9196716938       14.6644762192
 Sb        17.9199649960       12.0739436263       20.8356547230
 Sb        17.9289590339       11.8530086435       26.9127292335
 Cl        18.3173441635       11.9574399604       32.6886114919
 Sb        17.5928247517       14.6541500448       11.8935810283
 Sb        17.9686902402       15.0120042014       17.9229657102
 Sb        17.9419234640       14.9517861359       23.9808139262
 Sb        17.9204085395       14.8786312089       30.0456447267
 Cl        18.2459305984       15.1549239666       35.8431486839
 Cl        17.9351693167       17.9583348525        9.5551554109
 Sb        17.9242600939       17.9522339448       14.9811971294
 Sb        17.9896229100       17.9589396739       20.9889102809
 Sb        17.9294799708       17.9341449887       27.0317232454
 Sb        17.9182781082       17.9184542082       33.0827752794
 Cl        21.9023668396       18.8891505322       42.4383947337
 Sb        17.8839328792       20.8807279115       12.0588715522
 Sb        17.9508220357       20.9821896834       17.9759700166
 Sb        17.9707543083       20.9803857793       24.0002434124
 Sb        17.9185840120       20.9434674884       30.0600602162
 Sb        17.9204336029       20.9498022660       36.1229672391
 Cl        18.8505016417       21.8962707877       42.4603995029
 Cl        18.2077733726       23.6644566926        9.3587013515
 Sb        17.9333282555       24.0091334328       14.9496863233
 Sb        17.9862059291       24.0172347963       20.9768375408
 Sb        17.9605974126       23.9745027540       27.0363612547
 Sb        17.9190118574       23.9575779482       33.0808659731
 Sb        17.9280700801       24.0599846492       39.1356751836
 Sb        17.9147732661       26.9248411499       11.8544758934
 Sb        17.9193581924       27.0400339721       17.9203303848
 Sb        17.9585687839       27.0354151427       23.9726236874
 Sb        17.9667732740       26.9819884100       30.0486264839
 Sb        17.9312852142       26.9908757531       36.0488378174
 Cl        18.2255454028       27.3425716449       41.6369540324
 Sb        17.9182406379       30.0482673893       14.8782784802
 Sb        17.9168155639       30.0587534170       20.9392602431
 Sb        17.9849358897       29.9986865959       27.0028731283
 Sb        17.9649389497       30.0172795037       33.0264200979
 Sb        17.8963956171       30.1275283362       38.9219169458
 Cl        18.3280470973       32.6968963568       11.9507652720
 Sb        17.9160450308       33.0844494765       17.9170117078
 Sb        17.9365362009       33.0497115536       23.9607719911
 Sb        17.9527677923       33.0103763297       30.0068747195
 Sb        17.9348868085       33.0334277884       35.9562186073
 Cl        17.9681576687       33.0328770575       41.4218426688
 Cl        18.2539399838       35.8425536439       15.1450516450
 Sb        17.9088684199       36.1302590543       20.9666983234
 Sb        17.9140812857       36.0397178645       26.9986390957
 Sb        17.9226673178       35.9603656575       33.0442713085
 Sb        17.6192378108       36.3135657920       39.1057614780
 Cl        18.3150176731       39.0325751223       18.2988381155
 Sb        17.9234007741       39.1508393735       24.0895723315
 Sb        17.8855747544       38.9379724696       30.1527905972
 Sb        17.5808935788       39.0715343443       36.3307414113
 Cl        18.8385429465       42.4522124431       21.8799978837
 Cl        18.1921264446       41.6333423696       27.3495604269
 Cl        17.9011726789       41.4238981920       33.0598649759
 Ga        19.1724361306       10.8536029502       16.3126056440
 Ga        19.4318097778       10.6945762365       22.3480784386
 Ga        19.5053166916       10.4393036818       28.3931541049
 Ga        19.3308981628       13.3815231626       13.3823266381
 Ga        19.4888635997       13.5670243770       19.4261639272
 Ga        19.4201101318       13.4604544781       25.5262724021
 Ga        19.4245680559       13.3820784172       31.5730465741
 Ga        19.1767162377       16.3197355127       10.8529255089
 Ga        19.4989225167       16.4793287468       16.4149484956
 Ga        19.4910144739       16.4840749491       22.5196140774
 Ga        19.4170860044       16.4089419069       28.5644839452
 Ga        19.4220765082       16.4017876461       34.5976031580
 Ga        19.4282350483       19.4889821474       13.5608789005
 Ga        19.4938939568       19.4983304977       19.4947693060
 Ga        19.4279934764       19.4838948644       25.5413999353
 Ga        19.4199051847       19.4191386114       31.5828193859
 Ga        19.4271888329       19.4252737065       37.6191518457
 Ga        19.4279559934       22.3592482140       10.6891917217
 Ga        19.4263060665       22.5185107241       16.4892824368
 Ga        19.4930319932       22.5153546420       22.5132394872
 Ga        19.4281004450       22.4470752978       28.5612358314
 Ga        19.4161129831       22.4325741145       34.5951549042
 Ga        19.4411862538       22.5251548618       40.5542105650
 Ga        19.4199439720       25.5369734931       13.4564554022
 Ga        19.4288570258       25.5411574871       19.4287008888
 Ga        19.4261931530       25.5337145430       25.5337108049
 Ga        19.4269630390       25.4585337466       31.5743874654
 Ga        19.4245705259       25.4673260025       37.5422112761
 Ga        19.4265775647       28.4683209085       10.4427923895
 Ga        19.4162441619       28.5668757151       16.4059757619
 Ga        19.4256214411       28.5566532486       22.4403608109
 Ga        19.4892384694       28.4871724544       28.5488363520
 Ga        19.4323142106       28.4788792535       34.5152200498
 Ga        19.4324639876       28.6451175843       40.3069837830
 Ga        19.4211295775       31.5756406139       13.3845908497
 Ga        19.4163599623       31.5822958275       19.4152558163
 Ga        19.4284470435       31.5142057737       25.4615598400
 Ga        19.4939932422       31.5053049102       31.5026739163
 Ga        19.4327709680       31.5063842963       37.3798549847
 Ga        19.4207364233       34.5982927405       16.4018679302
 Ga        19.4128592214       34.5960098539       22.4344182413
 Ga        19.4245940254       34.5091498218       28.4751320112
 Ga        19.5012335082       34.5231329733       34.5211885040
 Ga        19.2450802856       34.6814094333       40.1415686618
 Ga        19.4210884327       37.6156860899       19.4270804826
 Ga        19.4163452926       37.5379845164       25.4705024360
 Ga        19.4233822747       37.3807206569       31.5119281882
 Ga        19.3333653796       37.6134639587       37.6144446719
 Ga        19.4321384673       40.5555190886       22.5324304999
 Ga        19.4244689846       40.3058633984       28.6489176745
 Ga        19.1654594846       40.1401743728       34.6777710936
 Cl        20.5969846394        9.5177915364       15.1303993946
 Cl        20.9566282466        9.4666886781       20.9386277681
 Cl        21.3083445659        9.2894871707       26.6223371642
 Cl        21.8934082495        8.5453834756       32.1050837356
 Sb        20.4830452151       11.7271580809       11.7274256396
 Sb        20.8790790833       12.0600222012       17.8851867752
 Sb        20.9781930961       12.0530810966       23.9085827254
 Sb        20.9888525739       11.8601778699       29.9811047586
 Cl        21.3360960244       11.9872853791       35.7448650037
 Cl        20.6082315755       15.1513296148        9.5178572930
 Sb        20.9099035707       14.9027444335       14.9098715366
 Sb        20.9938118232       15.0305663680       20.9566705067
 Sb        20.9516235965       14.9478082285       27.0213710256
 Sb        20.9521797800       14.8794805900       33.0769407025
 Cl        21.3381804006       15.2511889808       39.0104549277
 Sb        20.8449405522       17.9378205033       12.0595719826
 Sb        20.9875766714       17.9913699114       17.9570038418
 Sb        20.9715871680       18.0043299267       24.0251588945
 Sb        20.9491593959       17.9371133306       30.0494476200
 Sb        20.9515187288       17.9212750120       36.1188970015
 Cl        20.9475666216       20.9817313108        9.4497360667
 Sb        20.9551992777       20.9952730430       15.0298608281
 Sb        20.9990839996       21.0051638602       21.0010295890
 Sb        20.9474804193       20.9829144808       27.0356288162
 Sb        20.9502308133       20.9568448997       33.0693970794
 Sb        21.0027422639       20.9983112657       39.1467780989
 Sb        20.9639156308       23.9572967922       12.0189929447
 Sb        20.9630357183       24.0118799006       17.9815321207
 Sb        20.9521765630       24.0326330825       24.0304652280
 Sb        20.9386286422       23.9877610716       30.0441041163
 Sb        20.9537397855       23.9746459376       36.0514680777
 Cl        21.3394117587       24.3363553388       41.7452625517
 Cl        21.3311059915       26.6471742486        9.2388029220
 Sb        20.9529489842       27.0282872478       14.9431330290
 Sb        20.9380932656       27.0269436207       20.9667930271
 Sb        20.9715816175       27.0253124190       27.0059288262
 Sb        20.9662936971       26.9907091492       33.0180044679
 Sb        20.9795377258       27.0557392321       38.9718602925
 Sb        20.9741087358       29.9948927871       11.8577039842
 Sb        20.9480678847       30.0500551658       17.9329549051
 Sb        20.9457089651       30.0462717362       23.9476188687
 Sb        21.0089025420       30.0068433726       30.0120677327
 Sb        20.9861830340       29.9881993192       35.9681827810
 Cl        20.9492940478       30.0529183218       41.5303361639
 Cl        21.8729354577       32.1181405524        8.5114379994
 Sb        20.9502769902       33.0760320793       14.8789012631
 Sb        20.9378029162       33.0808935416       20.9377499103
 Sb        20.9528837373       33.0048764243       26.9802764082
 Sb        21.0050275355       33.0121142014       33.0125872096
 Sb        20.8656013585       33.0673796788       38.8884317202
 Cl        21.3443290925       35.7350947352       11.9723831752
 Sb        20.9503857557       36.1207776467       17.9184588919
 Sb        20.9498177977       36.0545928912       23.9758826939
 Sb        20.9623530334       35.9572677298       29.9947298817
 Sb        20.9021414099       36.0682803328       36.0868029259
 Cl        20.6806983444       35.8445715278       41.4560554510
 Cl        21.3581208418       38.9966627390       15.2210950151
 Sb        20.9800612427       39.1382669688       21.0053359961
 Sb        20.9596342609       38.9798390543       27.0456307553
 Sb        20.8258009356       38.9096626022       33.0697025374
 Sb        20.5186088116       39.2713983027       39.2387128459
 Cl        21.8830392729       42.4467207872       18.8712960040
 Cl        21.3044969729       41.7299609145       24.3242631564
 Cl        20.9387044359       41.5335778955       30.0453516626
 Cl        20.6011308095       41.4891086063       35.8180404920
 Ga        22.1061124548       10.5289617010       13.3138092804
 Ga        22.3571021424       10.6870961692       19.4281704814
 Ga        22.5231557942       10.6381153837       25.3796510853
 Ga        22.5385760053       10.4415298854       31.4926574242
 Ga        22.1054046299       13.3141313936       10.5300097744
 Ga        22.5047884328       13.4677430703       16.3961354258
 Ga        22.5070562808       13.5553099225       22.4447172758
 Ga        22.4426622560       13.4604134412       28.5518680233
 Ga        22.4533754575       13.3806876470       34.5975545279
 Ga        22.4428799701       16.4084459461       13.4658436882
 Ga        22.5184536818       16.4906485170       19.4277246031
 Ga        22.4458615534       16.4890941320       25.5369763736
 Ga        22.4357450706       16.4099907045       31.5831385709
 Ga        22.4518471911       16.4015229348       37.6176315498
 Ga        22.3442560412       19.4882047334       10.6921410044
 Ga        22.5173851530       19.4910868864       16.4831316862
 Ga        22.5105340531       19.4965850821       22.5132149970
 Ga        22.4421090061       19.4878583997       28.5573537641
 Ga        22.4356215394       19.4165987815       34.5903045360
 Ga        22.6014302729       19.5165933357       40.5629552509
 Ga        22.4423905893       22.5158328866       13.5639120992
 Ga        22.5095056737       22.5188565572       19.4971764440
 Ga        22.4437612201       22.5154189719       25.5364626232
 Ga        22.4413871187       22.5039754406       31.5709890540
 Ga        22.4416964291       22.4466204044       37.5418153842
 Ga        22.5195839983       25.4427952893       10.6164458827
 Ga        22.4446199696       25.5364441350       16.4864751156
 Ga        22.4430843853       25.5367980504       22.5098515319
 Ga        22.4440589240       25.5286851048       28.5541771576
 Ga        22.4479855458       25.4668102621       34.5166899405
 Ga        22.5236815814       25.5596259241       40.3785701539
 Ga        22.4441672721       28.5574668237       13.4572581647
 Ga        22.4363056135       28.5561000070       19.4855377438
 Ga        22.4436068722       28.5547858381       25.4681661397
 Ga        22.5141243478       28.4887005213       31.5122122148
 Ga        22.5072397287       28.4923547244       37.4501859299
 Ga        22.4477630544       31.5752230387       10.4440178481
 Ga        22.4350106687       31.5811401171       16.4062692097
 Ga        22.4354746253       31.5747664931       22.4427357487
 Ga        22.5049902722       31.5097469701       28.4816288993
 Ga        22.5206949192       31.5108288267       34.5141259970
 Ga        22.3541944706       31.5670268335       40.3034419702
 Ga        22.4494247399       34.5988207028       13.3846860066
 Ga        22.4354844603       34.5943544696       19.4138054614
 Ga        22.4397617354       34.5180715189       25.4703025762
 Ga        22.5160905239       34.5159242527       31.5106655372
 Ga        22.5049943110       34.5955479321       37.5244091491
 Ga        22.4554474106       37.6176248558       16.4023145924
 Ga        22.4397831558       37.5419107136       22.4443427844
 Ga        22.4469041934       37.4470910061       28.4902088542
 Ga        22.4403432713       37.5290794936       34.5939747357
 Ga        22.1816021254       37.6926539425       40.3948385510
 Ga        22.5352766985       40.5600556875       19.5050581467
 Ga        22.5161362290       40.3815451384       25.5546871858
 Ga        22.3438322368       40.2983292194       31.5656048397
 Ga        22.1081696466       40.4701147000       37.6152207114
 Cl        23.6663947925        9.3583242692       18.2199326634
 Cl        24.0070951446        9.4013208457       23.9642169388
 Cl        24.3142989128        9.3252246773       29.6803295914
 Cl        24.9142961715        8.5622299242       35.1639838163