     149
 i =       64, E =     -3750.6916284262
 Hg        12.0910806684       13.3578729299       10.9654384026
 Hg        12.0935898588       10.7418131554       14.0874347202
 Hg        10.3120810547       14.3362938546       14.4487783151
 Hg        15.8615988392       15.8405358085       10.1053534662
 Hg        15.8353739512       12.9341777980       13.1762788346
 Hg        13.4344456185       16.8591823977       13.4382060441
 Hg        15.8632838465       10.1758654242       16.7112562361
 Hg        13.4508948585       13.7384462848       17.1187153553
 Hg        11.4433783772       17.3800470924       17.0257534920
 Hg        19.2667202369       15.4412913340       12.4997149273
 Hg        17.0537194844       18.9758283764       12.7389507368
 Hg        19.5290511223       12.5055753197       15.8730674629
 Hg        17.1650062147       16.4159790054       16.1167058198
 Hg        14.5626127608       19.9130709880       16.4912067033
 Hg        17.0782287377       13.4220230095       19.4284713553
 Hg        14.5611481731       17.2797360111       19.5930752926
 Hg        11.4138632963       10.2845426235        8.3285996156
 Hg         8.9482061359       14.2863189885        8.4980944036
 Hg        11.3802081433        7.6357480126       11.4926776167
 Hg         7.3657110343       10.9489649131       11.5538282097
 Hg         6.5912682198       15.2003036391       11.8284454155
 Hg         8.9087052241        8.4958201024       15.3947125495
 Hg         6.5645442932       11.9417070526       15.6929383746
 Hg        14.7237686931       12.4366463502        7.3091201017
 Hg        12.1781561358       16.4893899920        7.5272910567
 Hg        14.9642630665        8.8980829030        9.8988812767
 Hg         9.1210904308       18.0857402862       10.3076852944
 Hg        14.6630152674        6.9641657428       13.7635386515
 Hg         7.6347595745       18.1670096386       14.4639638973
 Hg        12.1282112396        7.9038814128       17.7607055397
 Hg         9.0967232031       10.9563798921       18.7951589533
 Hg         7.6014963660       15.0477705722       18.1672087599
 Hg        18.1689026292       14.5144731517        6.6042584239
 Hg        15.4504196001       18.7959034773        6.8749942231
 Hg        18.5983039642       11.1986147390        9.0435951724
 Hg        12.6355770175       20.4593691862        9.5122043923
 Hg        18.3705835838        8.9262611437       12.6296946696
 Hg        10.3212444263       21.3653606908       13.0432554450
 Hg        18.1374902747        6.5470523351       15.8932002818
 Hg         8.8687007502       21.2102111502       16.9174763390
 Hg        15.4424758683        7.6691942787       20.1085582790
 Hg        12.6170845200       10.5417772447       21.2870328852
 Hg        10.3123464093       14.2012777981       21.5391769238
 Hg         8.8187854117       17.9661803908       20.7828019496
 Hg        21.5690692594       14.1420321850        8.9809897723
 Hg        19.3316980024       18.1884937444        9.2093875188
 Hg        16.6193932059       21.8290749857        9.4462404975
 Hg        21.7562410965       11.5552124853       12.0840243884
 Hg        14.5309718200       22.7711273832       12.8069367799
 Hg        21.5627861791        8.8927284688       15.2004785885
 Hg        12.3491108618       23.3626992811       16.1476423918
 Hg        19.2715636310        9.8373045667       19.1585155609
 Hg        11.3560599069       21.4889461188       20.4429318502
 Hg        16.5607574723       10.6988609149       22.6728067048
 Hg        14.4749157609       14.1684460085       23.0375866763
 Hg        12.3218211594       17.5853036248       23.0349559143
 Hg        22.9482904953       17.8340398208       12.0879649673
 Hg        20.7340943369       21.3605141789       12.3713920320
 Hg        23.0751053236       15.1316992467       15.0977608407
 Hg        21.5938312300       19.2050013606       15.8057513454
 Hg        18.3948607904       22.2556658057       15.5814028287
 Hg        22.9547365211       12.6160277002       18.3265526696
 Hg        21.1225226115       16.2365757247       18.7955362027
 Hg        19.1335294673       20.0898338506       19.3121599170
 Hg        16.1226606322       22.8621256474       18.9023890751
 Hg        20.7264007019       13.5206761713       21.7784113197
 Hg        18.3664780263       16.8510363254       22.0915092842
 Hg        16.0990446999       20.2125137576       22.0686988945
 Cl        11.7464174486       23.2589991366       21.9193293879
 Cl        16.1387309388       23.8227473813       10.9142999236
 Cl        10.1116047553       15.2047840396        6.4341485671
 Cl        16.0729494416       12.4743556768       24.3977306130
 Cl         6.4799497630        9.2903154166       10.1678207749
 Cl        24.4839405337       13.2196523108       16.4205399662
 Cl         6.7201673934       17.0958706290       19.6882923613
 Cl        17.4305220139       24.1795452659       17.1455605359
 Cl        13.7055905288        6.1561836764       19.0690802283
 Cl        17.3856210660       18.7037348822       23.6968719938
 Cl        13.6719057963       24.7014472389       14.4375305851
 Cl        12.5848953852       11.2459647571        6.2692959281
 Cl        10.0711238496        6.6157096026       16.6453825955
 Cl         5.5056639234       13.8509334943       16.9622507944
 Cl        19.6890996938       14.9163528867       23.5511833267
 Cl        23.2634699924        9.9518550497       13.6678442417
 Cl        16.0761675731        5.2528964437       15.4277040278
 Cl        23.2849589566       12.7798106907       10.2384862031
 Cl        19.7768483848       23.3698580956       13.4953455284
 Cl         5.5335692310       16.7852292006       13.4826725431
 Cl        12.5356070973        5.7447521913       12.7893704650
 Cl        13.7624910210       17.4686502574        5.5651361321
 Cl        16.1713355725       13.6800087434        5.3513348917
 Cl        24.5216263065       16.1038645649       13.0407992763
 Cl        13.6314458153       16.1216080104       24.6496866367
 Cl         6.7552662457       20.0158084930       16.2065830866
 Te        13.7868588896       11.3934140174       11.9757484181
 Te        11.1272465914       15.6511372857       12.2159804771
 Te        11.1219848973       12.3642517415       16.1321439028
 Te        17.5480586030       13.8569485472       11.0508540885
 Te        14.8629655441       18.1139431001       11.3018647973
 Te        17.5339923434       10.9797556745       14.5982735371
 Te        14.9852011754       14.9658193095       14.9844942816
 Te        12.3753417590       18.9880439162       15.0415779754
 Te        14.9025301341       11.8645145054       18.6940265054
 Te        12.3733114403       15.6886363719       18.9381686116
 Te        18.9578765951       17.5879943288       14.1939302667
 Te        18.9042378126       14.6013685338       17.6520013318
 Te        16.4544589333       18.4713660150       17.9367744546
 Te        12.4498781686        7.8573916155        8.9993126418
 Te         9.8107022654       12.0175572031        9.6938225052
 Te         7.1599115557       16.1716379329        9.3811189628
 Te         9.7970345663        9.2899869279       12.9642795509
 Te         7.4836995895       12.9782494222       13.2677405452
 Te         7.1209911071        9.7051925549       17.0862358719
 Te        16.3055224496       10.2594557690        7.8467053938
 Te        13.6787177798       14.5398986240        8.7502062051
 Te        10.8496311381       18.7999577676        8.2527128378
 Te        16.3675689387        7.2504445503       11.6494681128
 Te         8.1840883860       19.7710613438       12.2965807026
 Te        13.6483381611        8.7395332064       15.6251651261
 Te         8.8822165603       16.3150010484       16.0829016589
 Te        10.7924312097        9.0438814258       19.8834766705
 Te         8.1548401387       13.1977737502       20.1221854781
 Te        20.1851804314       12.8147222180        7.1000346734
 Te        17.4356332309       17.0048936318        7.6212989434
 Te        14.7622897203       21.2922701859        7.5803110919
 Te        20.2518638701        9.7489363489       10.7079534695
 Te        12.2127880163       22.4675385095       11.3316635982
 Te        20.1423262490        6.8749867208       14.1734329843
 Te         9.7642866001       23.1361003179       15.2578949199
 Te        17.4463060058        8.0082901039       18.2362618855
 Te        10.0238426838       19.7180762739       18.9659432230
 Te        14.7069061751        8.7698875364       22.4466992276
 Te        12.1581414036       12.6779952169       22.9511253063
 Te         9.7386637429       16.6640242323       22.9525213814
 Te        21.2660485799       16.5455111865       10.3114230592
 Te        18.7686996531       20.5038044802       10.5732888035
 Te        21.1535933356       13.6283124837       13.8112037744
 Te        16.1716021292       21.1966617336       14.3524023886
 Te        21.2954753034       10.5812846199       17.3923821093
 Te        13.6018226397       22.1088979766       18.1912623447
 Te        18.7624885752       11.5578078512       21.2342397607
 Te        16.1551831753       15.4180889205       21.2530975301
 Te        13.5888139445       19.3625053764       21.4380030747
 Te        22.9565945870       20.2114999958       13.3368577380
 Te        23.0279101822       17.1408199791       16.9363976145
 Te        20.4374801558       21.3081899135       17.1476128334
 Te        22.8952392500       14.2712074608       20.4228695981
 Te        20.4083009557       18.0797912837       20.7572129019
 Te        17.7593698617       22.0315964729       20.9142354286
