    1116
 i =       79, E =    -33630.5592137283
 Cl         8.4983312196       14.4777604549       20.3977268484
 Cl         7.3044235195       15.2222026594       26.1669745629
 Cl         8.5920907777       17.5002023739       17.4940176255
 Cl         8.2702508024       17.6687346171       23.6276802667
 Cl         7.2069814804       18.5194469165       29.3222157639
 Cl         8.5003301549       20.3979664746       14.4695057288
 Cl         8.3283135099       20.6519970571       20.6308518961
 Cl         8.2394213443       20.9595067259       26.8377657444
 Cl         7.2151502068       21.6486052568       32.5375692705
 Cl         7.5341308649       22.9652906480       12.0282849710
 Cl         8.2910432097       23.5987652085       17.6740066673
 Cl         8.2375862954       23.8888405519       23.8855382812
 Cl         8.1873003924       24.1673973191       30.0982250685
 Cl         7.3164098647       24.8753185325       35.7734148554
 Cl         7.3277000388       26.1341785600       15.2263809648
 Cl         8.2134947252       26.8081140447       20.9697819618
 Cl         8.2494090871       27.1490892465       27.1306730133
 Cl         8.2951222010       27.3963042312       33.3272270825
 Cl         7.5303396069       28.0382397096       38.9699555078
 Cl         7.2228970780       29.2703784696       18.5004179520
 Cl         8.2277626951       30.0906107949       24.1705768778
 Cl         8.3335001018       30.3455105994       30.3606425033
 Cl         8.4984061996       30.5991551168       36.5262764437
 Cl         7.2220610993       32.5550590557       21.6628492349
 Cl         8.2504299831       33.3268968782       27.3913798737
 Cl         8.5928139352       33.4935082435       33.4958750391
 Cl         7.3278587666       35.7747998969       24.8588682499
 Cl         8.4992170890       36.5299982451       30.5980440237
 Cl         7.5357213304       38.9684745891       28.0299919101
 In         9.5356900646       12.5585284601       21.9438007259
 In         9.9444698776       15.6709259919       18.7622765609
 In         9.3681873342       15.8349810907       25.3691234481
 In         9.9444189570       18.7631689833       15.6703718749
 In         9.6361405591       19.0105281053       22.1149435081
 In         9.2972551090       19.1699733050       28.6327446600
 In         9.5444227728       21.9396280849       12.5561887461
 In         9.7016600604       22.1118415245       19.0103648012
 In         9.6319696381       22.3500439276       25.3900564391
 In         9.2990138890       22.3673175928       31.9029585207
 In         9.3751531928       25.2952533341       15.8383909764
 In         9.6309789011       25.3857254479       22.3537570083
 In         9.5626278450       25.6143953625       28.7147156286
 In         9.3704213021       25.7036754641       35.1654624190
 In         9.2985499211       28.5557854516       19.1714363819
 In         9.6273351478       28.7181786424       25.6167403150
 In         9.7032472081       28.8886238072       31.9921076897
 In         9.5430994343       29.0604651140       38.4450717377
 In         9.3014113138       31.9008214147       22.3748540974
 In         9.6401423504       31.9930121609       28.8903890307
 In         9.9408180646       32.2350552288       35.3287366101
 In         9.3732858395       35.1638447077       25.7044986883
 In         9.9438420476       35.3274401093       32.2330295301
 In         9.5444421448       38.4442922522       29.0601009033
 Cl        11.9441373858        7.5274131687       22.9562716026
 Sb        10.7237224134       10.7665987446       20.2285284073
 Cl         7.5139657783       12.0234140868       22.9444286793
 Sb        10.9355491743       13.8680590490       17.0187866697
 Sb        10.9275194377       14.1654744382       23.8061562783
 Cl        10.8941274481       14.5135584517       29.9401394160
 Sb        10.9314589511       17.0193487062       13.8674263697
 Sb        11.1932407793       17.3893764997       20.5748894259
 Sb        10.8587034701       17.4321489582       27.1133198232
 Cl        10.8258986220       17.7965732376       33.2023607157
 Sb        10.7557821730       20.2439001233       10.7544831586
 Sb        11.2253975245       20.5761419057       17.3689730905
 Sb        11.0890380938       20.6436335143       23.8255962057
 Sb        10.8714156981       20.6650362306       30.3615967691
 Cl        10.8948420626       21.0451241003       36.4721064140
 Cl        12.0164458232       22.9480272136        7.5231328994
 Sb        10.9652769890       23.7735528073       14.1711705054
 Sb        11.1074388914       23.8214642593       20.6624874044
 Sb        11.0673032910       23.9386604055       27.1146373588
 Sb        10.8603548518       23.9190563639       33.5979167481
 Cl        11.1511250381       24.3560102326       39.8490595134
 Cl        11.1623531367       26.6690813280       11.1676765253
 Sb        10.8735177127       27.0217670305       17.4658948504
 Sb        11.0863881748       27.0982052533       23.9359200011
 Sb        11.1011889803       27.1677098683       30.3520702873
 Sb        10.9599612605       27.2242992040       36.8307639173
 Cl        12.0268585584       28.0348676113       43.4655074526
 Cl        10.9164322206       29.8853288879       14.5751706275
 Sb        10.8389507490       30.3168480498       20.6803228843
 Sb        11.1132176861       30.3782862033       27.1870558501
 Sb        11.2246610305       30.4275179344       33.6291870440
 Sb        10.7488596417       30.7584072708       40.2481561822
 Cl        10.8668749615       33.1736252841       17.8451820010
 Sb        10.8754153927       33.5730647772       23.9472102217
 Sb        11.2062965084       33.6196003075       30.4159889629
 Sb        10.9465684891       33.9827979571       37.1119683292
 Cl        10.9080287245       36.4811934629       21.1055014018
 Sb        10.9666746176       36.8274387204       27.2261271707
 Sb        10.9439626912       37.1154702275       33.9787073598
 Cl        12.0434634207       43.4592543297       28.0206107251
 Sb        10.7551844594       40.2465583403       30.7565881417
 In        12.4859845088        9.5400140969       21.9442906799
 In        12.4886356005       12.4870929674       18.9210659479
 In        12.5619995216       12.5598600701       25.4616832509
 In        12.4816452633       15.8347994634       15.8331419924
 In        12.6488783936       15.7505716728       22.3485992061
 In        12.4813233487       15.7503659189       28.7956463811
 In        12.4891622159       18.9177037191       12.4900276308
 In        12.8071621379       19.0807337678       19.0800250277
 In        12.5712313715       19.0010918419       25.6115611621
 In        12.4789319370       18.9387800349       32.0561618964
 In        12.5541133571       21.9418409312        9.5413157665
 In        12.7233238322       22.3412096104       15.7497142799
 In        12.7341722562       22.2720743966       22.2823533948
 In        12.5689608325       22.1999409512       28.8029721725
 In        12.4801917450       22.2095204089       35.2526574276
 In        12.5643982121       25.4610044751       12.5669089993
 In        12.6371531872       25.5410530107       19.0071392213
 In        12.7288037422       25.5233837092       25.5349023610
 In        12.5728758186       25.3861989716       31.9974462454
 In        12.5618527807       25.5387193226       38.4358501603
 In        12.4822000089       28.7238775243       15.8263260090
 In        12.5691093618       28.7994202255       22.2035457464
 In        12.7329516318       28.7273873535       28.7279888750
 In        12.7132463483       28.6521656455       35.2459533616
 In        12.5539538163       29.0610794102       41.4555804512
 In        12.4791643009       31.9884781835       19.0116273685
 In        12.6309042062       31.9968591690       25.4024186771
 In        12.8062398041       31.9161691456       31.9106642900
 In        12.4836968340       32.0839967833       38.5132313561
 In        12.4842259184       35.2512337832       22.2738572575
 In        12.7195630706       35.2460395623       28.6611490058
 In        12.4838735877       35.1093553331       35.1040715208
 In        12.5678096225       38.4370189418       25.5420572819
 In        12.4897644212       38.5097120925       32.0815331222
 In        12.5595694014       41.4528359972       29.0585100119
 Cl        14.4259262430        8.4758491937       20.4084677203
 Cl        15.2402301748        7.3120844520       26.1837948703
 Sb        13.8647824245       10.9116852825       17.0392058342
 Sb        14.1477269500       10.9196831282       23.7911811437
 Cl        14.5306789073       10.8892179222       29.9497256568
 Cl        14.5035597549       14.5033002441       14.5111501646
 Sb        14.1386716994       14.1453824113       20.6194691885
 Sb        14.1206084501       14.1229855533       27.1797731087
 Cl        14.3531797913       14.2995820157       33.3012367829
 Sb        13.8678407466       17.0208643633       10.9336984382
 Sb        14.2482494200       17.4228278881       17.4018982840
 Sb        14.1997834347       17.4185059509       23.9681517968
 Sb        14.0986830045       17.3261377892       30.4409961557
 Cl        14.3087246203       17.6570463002       36.6762245582
 Cl        14.4696894660       20.3992571992        8.5015724589
 Sb        14.1773715694       20.5941012140       14.1472943896
 Sb        14.3508119526       20.6906526813       20.7054455458
 Sb        14.1989844808       20.6191738216       27.1838818580
 Sb        14.0837235659       20.5678051445       33.6624131424
 Cl        14.5088887287       21.0824132977       40.0733744357
 Sb        14.1657678710       23.8044879326       10.9313504194
 Sb        14.2746819789       23.9221520706       17.4465179884
 Sb        14.2816464901       23.8852854893       23.9214887221
 Sb        14.2040914586       23.8169795052       30.3822639418
 Sb        14.1245907390       23.8462165879       36.8492219734
 Cl        15.2226166561       24.8769890606       43.6814171349
 Cl        15.2439910288       26.1972218281        7.3197370218
 Sb        14.1301992393       27.1221505319       14.1901615998
 Sb        14.1989324773       27.1398185442       20.6645181752
 Sb        14.3072103569       27.1080015990       27.1361780774
 Sb        14.2219678131       27.0452413139       33.5405186743
 Sb        14.1677501767       27.2247311140       40.0350411627
 Cl        18.4294137130       29.3507377858        7.2392556858
 Sb        14.0971589994       30.3787740256       17.3979411854
 Sb        14.2180394343       30.3427820905       23.8394330839
 Sb        14.3638036251       30.2881822658       30.3148474061
 Sb        14.1455467272       30.4033909091       36.8471038524
 Cl        14.4725263384       30.5955802532       42.5005305946
 Cl        14.2971983878       33.3074274434       14.3773987996
 Sb        14.0741621936       33.6357702481       20.6228373637
 Sb        14.2517971440       33.5377633220       27.0709470497
 Sb        14.2715721972       33.5772238141       33.5531382033
 Sb        13.8626705556       33.9739670763       40.0747143952
 Cl        14.3228135981       36.6398375877       17.6842746126
 Sb        14.1549468046       36.8688864662       23.8552544570
 Sb        14.1811455358       36.8450960937       30.4042445465
 Cl        14.5164267185       36.4585471133       36.4662686272
 Cl        14.5713451869       40.0993977771       21.1343886923
 Sb        14.1912005879       40.0209119366       27.2389150707
 Sb        13.8711869345       40.0638756858       33.9810979373
 Cl        15.2368919538       43.6726307483       24.8564720546
 Cl        14.4709908095       42.5007474088       30.6055548073
 In        15.6644966927        9.8724956240       18.7652226328
 In        15.8302749645        9.3726554319       25.3608147327
 In        15.8348048846       12.4782212965       15.8981786119
 In        15.7463988108       12.6438645450       22.3415943897
 In        15.7464064098       12.4814545259       28.7917695548
 In        15.8327809701       15.8383349671       12.4855088747
 In        15.7514224105       15.8230971917       19.0953236048
 In        15.7482456749       15.7529338687       25.6218039636
 In        15.7391894676       15.6777829621       32.0674491579
 In        15.6701255722       18.7625434881        9.9433952541
 In        15.8247555387       19.0916893153       15.8226449424
 In        15.8365076204       19.0089985552       22.3613799734
 In        15.7409242937       18.9342867231       28.8735792417
 In        15.6782715065       18.9345496920       35.3256556127
 In        15.7506405962       22.3445657101       12.6518275851
 In        15.9034808386       22.3483536923       19.0810020589
 In        15.8307497457       22.2042319193       25.5486203831
 In        15.7429419870       22.1235178506       32.0612948668
 In        15.7466815563       22.2709180816       38.5168248420
 In        15.8364543178       25.3696012250        9.3766213789
 In        15.8119711437       25.6151292120       15.8187656773
 In        15.8324985435       25.5411408212       22.2777653592
 In        15.8362648451       25.4515506265       28.7995587019
 In        15.7478051685       25.3764162283       35.1798608371
 In        15.8330079342       25.7070947259       41.6294824812
 In        15.7462827627       28.7233435258       12.5546618110
 In        15.7444034745       28.8108816000       19.0087499418
 In        15.8403221987       28.7299133095       25.4574933635
 In        15.9011031674       28.6425592757       31.9811352185
 In        15.7523880460       28.6536437313       38.2814627996
 In        15.6700608279       32.0544576353       15.7471548941
 In        15.7447562943       32.0564967997       22.1887399684
 In        15.9051656766       31.9157235340       28.6474539062
 In        15.7641896264       31.9099402273       35.1805654032
 In        15.6700279916       32.2339408943       41.0576860039
 In        15.6714859759       35.2600205101       18.9535668627
 In        15.7523410592       35.1841832836       25.3848209240
 In        15.8287128016       35.1800324565       31.9051161540
 In        15.8397182447       35.1042630231       38.5114181825
 In        15.8219269248       38.5175397568       22.2770529494
 In        15.8161144147       38.2812828703       28.6602921518
 In        15.8349313491       38.5108165626       35.1647825620
 In        15.8338263097       41.6253672486       25.7059759590
 In        15.6708371972       41.0541405647       32.2366207432
 Cl        17.4887579698        8.5196115071       17.4918481416
 Cl        17.6712133265        8.2726487704       23.6270107597
 Cl        18.4625276131        7.2136660820       29.3403678608
 Sb        16.9865084302       10.9208402046       13.9095085939
 Sb        17.3693466585       11.1708100499       20.5593276912
 Sb        17.4207667071       10.8879650908       27.0865361348
 Cl        17.8364128217       10.8376279427       33.1418402952
 Sb        16.9895867396       13.8766390347       10.9130660592
 Sb        17.3711382182       14.3067743980       17.4067156722
 Sb        17.4043168202       14.2146704235       23.9529471758
 Sb        17.3612117349       14.0780260110       30.4146259932
 Cl        17.6815825754       14.3105526379       36.6430188414
 Cl        17.4878156090       17.4907046133        8.5809019026
 Sb        17.4119066532       17.4146934447       14.2628998645
 Sb        17.4067251949       17.4137119133       20.7055489712
 Sb        17.3804470321       17.3846972467       27.2038551874
 Sb        17.3195203233       17.3331189078       33.6823333623
 Cl        21.6594723370       18.5030761564       43.7820496645
 Sb        17.3899462840       20.5768180534       11.1900319318
 Sb        17.4430600859       20.6715567956       17.4753187938
 Sb        17.4559431280       20.6339607665       23.9366622775
 Sb        17.3847216603       20.5833330608       30.4113823178
 Sb        17.3258450500       20.5831453909       36.9257763611
 Cl        18.4436377072       21.6726781869       43.7820617778
 Cl        17.6733486061       23.6328635399        8.2688926105
 Sb        17.4169972613       23.9253811032       14.2535893602
 Sb        17.4755352927       23.9606639966       20.6814118912
 Sb        17.4208320904       23.8385708895       27.1616645988
 Sb        17.3939420734       23.7777056884       33.5999928643
 Sb        17.4053447228       23.9348141702       40.1390227845
 Sb        17.4384346586       27.0677294700       10.9160007329
 Sb        17.4094492984       27.2208384930       17.4190683786
 Sb        17.4657523222       27.1268790438       23.8718574615
 Sb        17.4919232581       27.0631342901       30.3429814172
 Sb        17.4036249950       27.0418701287       36.7215911960
 Cl        17.6718274406       27.3968455626       42.7048526405
 Sb        17.3170092277       30.4202434487       14.1179212445
 Sb        17.3772749313       30.4110211499       20.6126289438
 Sb        17.4934605932       30.3120258572       27.0475516171
 Sb        17.4252004127       30.3264892047       33.5684003348
 Sb        17.3674830806       30.4248449940       39.7727689989
 Cl        17.8001076175       33.1797052632       10.8551484896
 Sb        17.3108898020       33.6540736143       17.3541657310
 Sb        17.4059128696       33.6056224360       23.8008617930
 Sb        17.4465089492       33.5496042055       30.2999372940
 Sb        17.4063367856       33.5657991386       36.7137556445
 Cl        17.5018520571       33.4887295486       42.4043585891
 Cl        17.6970233907       36.6536391451       14.3774002697
 Sb        17.3374826160       36.9028673485       20.5761102855
 Sb        17.4454345771       36.7037277761       27.0553126217
 Sb        17.4135724433       36.7310965354       33.5859369014
 Sb        17.0085478423       37.1036290143       40.0436081570
 Cl        17.8762007746       40.1675628796       17.8381138644
 Sb        17.4625924917       40.1263331166       23.9802976135
 Sb        17.3965781841       39.8020435052       30.4273261080
 Sb        17.0193748753       40.0615740810       37.1296534360
 Cl        18.5256316568       43.7702866820       21.7035919977
 Cl        17.6787261455       42.7534385433       27.3972614106
 Cl        17.5064682183       42.4035695592       33.4970515413
 In        18.7536019326        9.8710065475       15.6626898277
 In        19.0072784005        9.6405102592       22.1112442693
 In        19.0968980420        9.2973279376       28.6249458066
 In        18.8452403375       12.4840287681       12.4938965025
 In        19.0108436741       12.8064280500       19.0222114751
 In        18.9955456134       12.6277302639       25.6065689821
 In        19.0093164064       12.4746321317       31.9955525973
 In        18.7526691028       15.6718069058        9.9402067000
 In        19.0876128056       15.8264319870       15.8204969209
 In        19.0116372528       15.8352482743       22.3502865958
 In        18.9361593199       15.7487211541       28.8642174662
 In        18.9346082046       15.6740485739       35.2593492486
 In        19.0765244056       19.0861381169       12.8124892050
 In        19.0194236308       19.0171089133       19.0909376722
 In        19.0103758757       19.0117421229       25.6131049773
 In        18.9300875683       18.9310912664       32.0685678125
 In        18.9394509789       18.9412407933       38.5188996721
 In        19.0088999420       22.1149645960        9.6335803702
 In        19.0151927749       22.3446239495       15.9042284121
 In        19.0218128984       22.2715477994       22.2829901063
 In        19.0076830175       22.2010691567       28.7984693235
 In        18.9346824895       22.1213572710       35.2563601349
 In        19.0986272805       22.3697035541       41.6982452491
 In        19.0025033973       25.5442792374       12.6369097920
 In        19.0155871936       25.6136634331       19.0217067780
 In        19.0138308948       25.4682085946       25.5364196058
 In        19.0144238822       25.3837348700       31.9841554914
 In        18.9384099692       25.3889856130       38.3594284014
 In        19.0972285152       28.6322998794        9.3114245726
 In        18.9373483214       28.8737223376       15.7482619341
 In        19.0078392114       28.7958921435       22.2062893876
 In        19.0895845155       28.7173330977       28.7204838234
 In        19.0160612938       28.6439981216       35.0974601463
 In        19.0083038110       28.8870053295       41.2943234942
 In        18.9423710180       31.9894539302       12.4785853722
 In        18.9295032954       32.0574204126       18.9403967008
 In        19.0157096473       31.9786158714       25.3885251136
 In        19.0193834111       31.9779452693       31.9777505188
 In        19.0762909244       31.9194285601       38.1861478752
 In        18.9350202816       35.2600096249       15.7447021822
 In        18.9333557525       35.2547041243       22.1290003312
 In        19.0803693150       35.0931383470       28.6511336499
 In        19.0869880075       35.1771084864       35.1793249756
 In        18.7631510189       35.3288674473       41.0538686690
 In        19.0039105030       38.5201713138       19.0122120028
 In        19.0055115893       38.3640829732       25.4599447461
 In        19.0792969117       38.1868790004       31.9225325544
 In        18.9157075577       38.5054043103       38.5109565848
 In        19.1704087397       41.6979154765       22.4469832477
 In        19.0120776460       41.3631688218       28.8903795431
 In        18.7628915441       41.0540322831       35.3297554114
 Cl        20.4005753329        8.4801055352       14.4295040923
 Cl        20.6717945706        8.3341328019       20.6493063280
 Cl        20.9066500664        8.2274788755       26.8273157051
 Cl        21.6927426641        7.2110566674       32.4943008454
 Sb        20.1814021660       10.7571108321       10.7484929030
 Sb        20.5292590531       11.1784676853       17.3709318697
 Sb        20.6174946826       11.1171456754       23.8157950440
 Sb        20.6657609373       10.8499598218       30.3086226250
 Cl        21.1016346092       10.8999172501       36.4723928529
 Cl        20.3812280382       14.4859065131        8.4791365210
 Sb        20.5538147624       14.1508473167       14.1481843040
 Sb        20.6623152489       14.3205326786       20.6656805264
 Sb        20.6282607302       14.2143575448       27.1845618391
 Sb        20.5984111148       14.0657982116       33.6508935578
 Cl        21.0768150090       14.4912931839       40.0931742642
 Sb        20.5539025050       17.4008977043       11.1804833566
 Sb        20.6735925133       17.4369108045       17.4674252795
 Sb        20.6281340106       17.4575738359       23.9299401432
 Sb        20.5823705277       17.3860051836       30.4102230025
 Sb        20.5551753671       17.3252287832       36.9013225757
 Cl        20.6546621825       20.6530685534        8.2942064055
 Sb        20.6932437110       20.6934307941       14.3734284258
 Sb        20.6462178255       20.6454228908       20.6830052225
 Sb        20.6431363424       20.6441503432       27.1606563544
 Sb        20.5849183211       20.5841577795       33.6125170793
 Sb        20.6343081558       20.6641706086       40.1282903010
 Sb        20.6391108859       23.8189195164       11.0951849574
 Sb        20.6424692315       23.9186662554       17.5104040450
 Sb        20.6316467933       23.8629543489       23.9182678293
 Sb        20.6469573103       23.8356414750       30.3495180989
 Sb        20.6090548263       23.8170962935       36.7874816511
 Cl        20.9060041348       24.1674940915       42.7696561983
 Cl        20.9099223036       26.8639850455        8.2063035788
 Sb        20.6150654573       27.1560693659       14.2420505939
 Sb        20.6459215152       27.1548511500       20.6574112839
 Sb        20.6717074126       27.0903206260       27.1015567750
 Sb        20.6537035442       27.0649987657       33.5067359532
 Sb        20.6106185730       27.1622498123       39.8533394261
 Sb        20.6660818814       30.3261411032       10.8769364912
 Sb        20.5874719186       30.4077800385       17.3938029843
 Sb        20.6492150807       30.3423214039       23.8444083447
 Sb        20.6440502202       30.3502861368       30.3570767287
 Sb        20.6807712656       30.2887077891       36.6363587110
 Cl        20.6461860336       30.3298846171       42.6636026141
 Cl        21.6375175015       32.5530262109        7.2347000531
 Sb        20.5498775415       33.6287693362       14.1017459803
 Sb        20.5768292125       33.5956618872       20.6086996181
 Sb        20.6738516914       33.4910879969       27.0591451570
 Sb        20.6894360137       33.5403270277       33.5704747217
 Sb        20.5722229060       33.6037359560       39.8011028214
 Cl        21.0891361020       36.4821960768       10.9454445265
 Sb        20.5776374986       36.8855568816       17.3850872031
 Sb        20.6111569725       36.7709559544       23.8385812434
 Sb        20.7065443801       36.6327037136       30.3184833611
 Sb        20.5992107485       36.8135982330       36.8482386828
 Cl        20.3930498065       36.5303352751       42.5001597299
 Cl        21.0706463356       40.0736149728       14.5500072753
 Sb        20.6796200634       40.1258041532       20.7134316387
 Sb        20.6470532036       39.9038173533       27.1928553433
 Sb        20.5747614253       39.7697500895       33.6336847841
 Sb        20.2438906140       40.2387362641       40.2463225314
 Cl        21.6698602868       43.7750498352       18.4979493128
 Cl        20.9717292580       42.7909657258       24.1952145391
 Cl        20.6687786689       42.6673072312       30.3624332493
 Cl        20.3970591040       42.4979288914       36.5295016553
 In        21.9386451504        9.5432982012       12.4856973441
 In        22.1127281246        9.7053379278       19.0126318119
 In        22.2793267939        9.6289706770       25.3829794156
 In        22.3784232077        9.2977073300       31.8331066636
 In        21.8685080797       12.5575593943        9.5387645655
 In        22.2749200154       12.6494573053       15.7424404323
 In        22.2670806715       12.7346078516       22.2679641361
 In        22.2004307957       12.5704301414       28.7960801875
 In        22.2719287327       12.4810378047       35.2500729306
 In        22.2778874926       15.7486285215       12.6534161683
 In        22.3449878219       15.8338227164       19.0143352291
 In        22.2008758009       15.8349587745       25.5408007635
 In        22.1231012605       15.7468690890       32.0613017965
 In        22.2067781425       15.7505342650       38.5145814736
 In        22.1100790076       19.0125749965        9.6337960541
 In        22.3476216624       19.0148578977       15.9022195218
 In        22.2716489946       19.0214035890       22.2801978496
 In        22.1984914736       19.0103486153       28.7988839284
 In        22.1206640637       18.9332429987       35.2579939335
 In        22.3650657293       19.1679447753       41.7014178821
 In        22.2678966304       22.2736529583       12.7366991586
 In        22.2715930998       22.2689387816       19.0912789165
 In        22.2645505109       22.2576287311       25.5282434951
 In        22.1977116452       22.1996914092       31.9884779962
 In        22.1884709257       22.2000978803       38.4284434754
 In        22.2756454305       25.4506905390        9.6314288153
 In        22.2017799719       25.5432739316       15.8982166201
 In        22.2065830542       25.4768068454       22.2795804156
 In        22.2656515791       25.4690857296       28.7332850344
 In        22.1969799354       25.4547610777       35.1646735194
 In        22.2738424567       25.6186506269       41.3703699462
 In        22.1889106585       28.8061481124       12.6396612323
 In        22.1978101725       28.7961326125       19.0153036506
 In        22.2674734224       28.7193228999       25.4645392763
 In        22.2799689957       28.7167759136       31.9102999003
 In        22.2697823921       28.7277150540       38.2666208604
 In        22.3623995078       31.9014695682        9.3102610460
 In        22.1286765489       32.0606804307       15.7527196525
 In        22.1998954703       31.9863922319       22.2137863417
 In        22.2792513527       31.9093806088       28.7261282370
 In        22.3537545248       31.9111437923       35.0968820242
 In        22.1126835782       31.9906876880       41.3619485481
 In        22.2097931022       35.2544097950       12.5588665936
 In        22.1289041493       35.2507233356       19.0021067127
 In        22.2095490517       35.1582920103       25.4571392225
 In        22.3540962392       35.0947407153       31.9830153097
 In        22.3469980979       35.1840276202       38.2859632168
 In        22.2147072234       38.5115602578       15.8191585621
 In        22.1982478203       38.3623394363       22.2044104368
 In        22.2717037749       38.2626140870       28.7296034020
 In        22.3440866282       38.2761146190       35.2510914076
 In        21.9451896868       38.4374525159       41.4527109733
 In        22.3698573210       41.6982146637       19.1728242253
 In        22.3435751195       41.3685622699       25.6232836034
 In        22.1114020060       41.2950091035       31.9943711570
 In        21.9386517012       41.4549205422       38.4448748772
 Cl        23.5968982251        8.2994575464       17.6641150431
 Cl        23.8580423176        8.2864334579       23.8490173159
 Cl        24.1667732999        8.2330769919       30.0325740069
 Cl        24.8060574612        7.3305334735       35.7959936623