    1296
 i =      193, E =    -22504.0776366268
 Cs        33.9384942359        6.8994010979       12.2057808262
 Cs        33.7400960125        6.9575092732       23.0584842800
 Cs        33.8402233813        6.9588348297       33.8446930839
 Cs        33.8762207353       17.6222501659       12.1829089418
 Cs        33.9047397632       17.6122390403       22.9807392259
 Cs        33.8468953622       17.5358160972       33.8415951229
 Cs        33.7612800957       28.4515607459       12.0534113967
 Cs        33.9375481873       28.4005309562       23.1050045999
 Cs        33.7857688568       28.4492333943       33.9273702089
 Cs        33.8727346185       39.0236783960       12.1701990918
 Cs        33.6968188461       39.0378970773       22.8249546423
 Cs        33.7390125074       39.1098764216       34.0368136823
 Cs        12.2069437491       12.1938429361       12.1052478833
 Cs        12.1773195721       12.1563725200       23.1688453397
 Cs        12.2061224026       12.2135710795       33.8285331972
 Cs        12.0914214855       22.9799872746       12.2255987686
 Cs        12.0963254697       23.0211741451       23.0365331948
 Cs        12.1701735115       22.8652346391       33.8257968272
 Cs        12.1337579045       33.8747120950       12.3082808098
 Cs        12.1847030349       33.8414441412       22.8705988361
 Cs        12.1860480775       33.8865334834       33.8754614666
 Cs        22.9648645891       12.1181052287       12.2072666579
 Cs        23.0316070341       12.0915286380       23.0435447975
 Cs        22.8615553154       12.1672627265       33.8360534128
 Cs        23.0027176579       22.9956484450       12.1248467843
 Cs        23.0190276605       23.0108907514       23.0111485602
 Cs        22.9883165022       23.0070443832       33.9080109735
 Cs        23.0320675761       33.9198470698       12.2059943625
 Cs        23.0266895035       33.9008892540       23.0004361831
 Cs        23.1609170296       33.8295715710       33.8384562372
 Cs        33.8375718235       12.0986281037       12.2224408310
 Cs        33.7774819251       12.1080292151       22.9305089059
 Cs        33.8590816465       12.0985565938       33.8567642019
 Cs        33.8709584425       23.0848893807       12.1342502710
 Cs        33.9716447723       22.9645059620       23.0502248136
 Cs        33.8242250324       23.0642916590       33.9189851303
 Cs        33.7968915091       33.8236420663       12.0481235540
 Cs        33.8936964416       33.8999857043       23.1283893445
 Cs        33.7152756466       33.8954751886       33.9383612005
 Cs        12.2254935139        7.0479143164        7.1177638596
 Cs        12.2576403772        6.9740003167       17.6058657038
 Cs        12.1300191035        6.9350472898       28.5397643324
 Cs        11.8415314163        7.0750667340       38.8548653602
 Cs        12.1345013439       17.4703391069        6.9058504337
 Cs        12.1390048418       17.6006888861       17.6689384606
 Cs        12.0943033795       17.5606585681       28.5026283950
 Cs        11.9778467267       17.8133986415       39.0794603545
 Cs        12.2649875655       28.6195162796        7.1381707787
 Cs        12.0334482590       28.4461902693       17.5735274233
 Cs        12.1573560174       28.4200467673       28.4125932595
 Cs        12.2808582089       28.4424070786       39.0050531131
 Cs        11.7927659891       38.9057553232        7.1378424589
 Cs        12.1194650735       39.1182420063       17.5693116554
 Cs        12.2980492010       39.0477661595       28.4048473227
 Cs        12.2559295612       38.9619689361       38.9501791345
 Cs         7.0719385452        7.0732597425       17.3576420202
 Cs         7.1480265982        7.0392516051       28.3755663092
 Cs         7.0049987768       17.3022440779        7.2137983090
 Cs         7.0779509069       17.6125993052       17.5497089675
 Cs         7.0551537469       17.7070521431       38.8557331968
 Cs         7.2264059738       28.2737719950        6.9426097305
 Cs         7.0791363812       28.3822938453       28.5327352353
 Cs         7.1407563200       28.7189979542       38.9406263878
 Cs         7.1028858412       38.9179597323       17.6908403668
 Cs         7.1172504788       38.9528073688       28.7030926915
 Cs        23.1214617536        6.9434094710        7.1942449022
 Cs        22.9555906090        6.8905333681       17.6655541004
 Cs        23.0271238439        6.9060219854       28.4232040893
 Cs        22.8071809953        6.9942456843       38.8588222322
 Cs        23.1971479808       17.7117954908        6.9617921044
 Cs        23.0152034560       17.5374673313       17.5720856701
 Cs        22.9623899630       17.5814230438       28.4616866364
 Cs        23.1973568644       17.3115963396       39.0753130627
 Cs        17.3222221370        6.9952167699        7.2158573192
 Cs        17.5930899421        7.0696782244       17.5760763966
 Cs        17.6800033274        7.1178218603       38.9309934613
 Cs        23.0049734479       38.9831458325       33.7742074823
 Cs        17.5334271629       17.5441972517       17.5999062602
 Cs        17.5497268594       17.5574420276       28.4781612832
 Cs        23.2106282056       39.0135167285       12.3172389193
 Cs        17.4617224835       28.5381634230        7.1810361958
 Cs        17.5564451473       28.4608871659       17.5443858283
 Cs        17.5786711388       28.4746849206       28.4642880889
 Cs        17.6384539414       28.4876363379       39.0081867361
 Cs        17.7257097948       38.7797605209        6.9317906709
 Cs        17.7288122593       38.9820818750       28.5569879923
 Cs        17.3614255145       38.9253081870       38.9217576613
 Cs        22.7889791243       28.2632046890        6.9409294014
 Cs        23.0053051528       28.4811748441       17.5677284204
 Cs        23.0601251869       28.4657320666       28.4579897496
 Cs        23.1989331766       28.3138141308       39.1258926894
 Cs        22.8842712541       39.0810551390        7.1982786241
 Cs        23.0507116512       39.1203587320       17.6494294526
 Cs        23.1852974429       39.0916583964       28.3334634744
 Cs        28.2828023577        7.2089270156        6.9193161467
 Cs        28.3969334963        7.0137923576       28.4447556642
 Cs        28.6883093333        7.0344553327       38.8887343224
 Cs        28.4717267396       17.5133274510        7.1563009547
 Cs        28.4557370579       17.5554171022       17.5546736476
 Cs        28.4672483112       17.5648896509       28.4740742364
 Cs        28.5476717362       17.6403314237       38.9766266415
 Cs        28.4740504485       28.4754563118       17.5751427771
 Cs        28.4784610885       28.4580774495       28.4714494654
 Cs        23.2023907560       38.9162206568       38.9369708420
 Cs        28.6919145427       39.0299333465        7.2042843299
 Cs        28.5099339120       38.9724656065       17.6428744439
 Cs        28.3051050785       38.8961895848       38.9363767994
 Cs        38.9892401404        7.1784828362       17.6956875133
 Cs        38.9048671424        7.0643465544       28.6739921194
 Cs        38.8978647695       17.7449573174        7.0500651980
 Cs        39.0522816521       17.4493877157       17.6358485081
 Cs        38.9612398924       17.5778887068       28.4819295996
 Cs        38.9341099396       17.2676630221       38.9192287074
 Cs        34.2359125091        7.0901429297        7.1066048129
 Cs        33.8730584989        6.8726178784       17.6133827137
 Cs        38.9966355482       28.7100608534        7.1313275503
 Cs        38.9405505698       28.5133231903       17.4953949356
 Cs        39.0234557605       28.3566381251       28.5257572623
 Cs        39.0699475626       28.2861696209       38.8232773229
 Cs        33.7648818403        6.9276347842       28.4232243176
 Cs        33.7910288935        7.0169034983       38.9189333688
 Cs        38.9209639576       38.9852555058       17.3243501375
 Cs        39.0742780216       38.8241919808       28.3977425872
 Cs        33.7122451082       17.4384780862        7.0428479211
 Cs        33.8684935295       17.5785562767       17.5902863563
 Cs        33.8787174015       17.6282503165       28.3870251899
 Cs        33.8343892957       17.4948891522       38.9841058735
 Cs        33.8559649811       28.5724708242        6.8395774211
 Cs        33.8735222190       28.4366667711       17.5864473701
 Cs        33.8588909948       28.4346767355       28.4729662954
 Cs        34.0140571311       28.1117880229       39.1736803380
 Cs        33.7949549418       38.9895929279        7.1010665968
 Cs        33.8357690533       38.9888057979       17.5712564002
 Cs        34.0226887982       39.1482145478       28.2107579939
 Cs        34.1298794481       38.9206837094       39.0003606453
 Cs         7.0766603311        7.0528631073       12.2591920041
 Cs         7.0510786669        7.0745953244       23.2372286160
 Cs         7.0612679610        7.1905902996       34.2221176174
 Cs         7.0219445866       17.5647089430       12.2697965236
 Cs         6.9147954064       17.3771920833       22.8310985477
 Cs         6.9701243470       17.5474886918       33.8800170018
 Cs         6.8936590431       28.0957760796       11.9702665993
 Cs         6.9585993864       28.6791332065       23.2360403182
 Cs         7.0053091690       28.4648439135       33.7776159327
 Cs         7.0892750067       38.9223037051       11.8571431002
 Cs         7.0882074758       38.9528027024       22.8237618716
 Cs         7.1113556953       38.9705227067       33.8057838343
 Cs        17.5841807785        7.0148586938       12.2846008087
 Cs        17.3298213866        6.9213474258       22.8309549268
 Cs        17.7604796534        6.9211130803       34.0027584940
 Cs        17.4954542142       17.5056555560       12.0833883874
 Cs        17.5741572998       17.5775869941       23.0798607415
 Cs        17.5352118975       17.5485655169       33.9296637050
 Cs        17.5454106502       28.4628897026       12.1829900965
 Cs        17.5668596582       28.4633635451       22.9675903580
 Cs        17.6352386742       28.4447191473       33.8536912768
 Cs        17.9088257955       39.1163759259       11.9599198061
 Cs        17.3524964856       39.0801732909       23.1952891635
 Cs        17.6148209299       39.0125214705       33.7925358386
 Cs        28.1287564630        6.9005854014       11.9655420679
 Cs        28.3885485502        6.8751417566       22.9964159363
 Cs        28.4390452092        6.9566344918       33.7418350223
 Cs        28.4804397223       17.5459646392       12.1636039950
 Cs        28.4659039141       17.5752018873       22.9837234099
 Cs        28.4030749862       17.5921627996       33.8785405261
 Cs        28.4891124020       28.5341930158       12.0318794133
 Cs        28.4742328322       28.4452620633       23.0605186035
 Cs        28.4653857205       28.4689222244       34.0051342163
 Cs        28.4347738750       39.0066867089       12.2726123026
 Cs        28.2804892344       39.1428137444       23.2040104447
 Cs        28.4381376183       39.0849973139       33.8906179218
 Cs        38.9605078025        7.1289116052       11.8068397515
 Cs        38.9172911073        7.0654814383       22.8059763149
 Cs        38.9196616013        7.0101534066       33.7771472878
 Cs        39.0202751558       17.7176031342       12.0833905342
 Cs        39.0960947805       17.4839238143       23.0376763813
 Cs        39.0487730206       17.5633431064       33.7151066850
 Cs        38.9822792861       28.4166927090       12.2117625613
 Cs        39.1447890938       28.6979775637       22.7065534787
 Cs        38.8787415944       28.6194339483       33.8453877889
 Cs        38.9466176436       38.9461878800       12.2300537357
 Cs        38.8263780800       39.1724955238       23.2464794475
 Cs        38.8719980092       38.9192527715       34.3289498040
 Cs         6.9999158584       12.1381624874       12.1797533283
 Cs         7.0026452172       12.1848557716       22.9644064194
 Cs         7.0392958323       12.2648849044       33.9909083851
 Cs         7.0008486104       22.8005135746       12.3324630628
 Cs         6.8402253891       23.0323205390       23.0586263672
 Cs         7.0090549375       23.0033235545       33.8097963833
 Cs         6.9198477303       33.9597293189       12.2782674553
 Cs         7.0232121615       33.8340265748       23.0364272799
 Cs         7.0308878134       33.8934126963       33.8650248551
 Cs        17.5699909928       12.2282651942       12.1304034934
 Cs        17.6009921886       12.1050874625       23.0916107592
 Cs        17.4796406597       12.2023213270       33.8475923407
 Cs        17.4720460807       22.9405504339       12.1580669344
 Cs        12.1326718320       12.1258698969        7.0573976728
 Cs        12.1683036804       12.1625176623       17.5836387829
 Cs        12.1971482408       12.1720992292       28.5693469744
 Cs        12.2695678586       12.0614032949       38.9967202091
 Cs        17.5477809508       23.0150513924       23.0178754581
 Cs        12.0320494213       22.9777728317        6.9124579407
 Cs        12.0699847398       23.0486637463       17.6955369288
 Cs        12.0869863275       22.9512162959       28.4095888190
 Cs        12.2579147188       23.1188778569       38.9943013181
 Cs        17.6184763788       22.9557351528       33.9176564146
 Cs        12.1439100011       33.8574836377        7.2333151927
 Cs        12.1645067604       33.8498205338       17.4783524223
 Cs        12.1949519921       33.8633162919       28.4550835275
 Cs        12.1806751347       33.8693508985       39.0194800344
 Cs        17.5820278761       33.8943018228       12.2367973693
 Cs        17.6071744828       33.8988232072       22.9614357279
 Cs        17.6170327955       33.8343265090       33.8408862507
 Cs        22.9765310059       12.0416725025        6.9113573806
 Cs        23.0182771436       12.0901371411       17.6881433433
 Cs        22.9511018416       12.0904369475       28.4001853377
 Cs        23.0003387056       12.1361724993       38.9733389751
 Cs        22.9705065049       23.0195779578        7.0973261682
 Cs        23.0169611760       23.0079955463       17.5162497107
 Cs        23.0136019111       23.0115748045       28.4966510875
 Cs        22.8969652987       22.9913956947       39.1167879983
 Cs        23.0161323998       33.9819583260        6.8989611607
 Cs        22.9732187881       33.9320890226       17.6626834518
 Cs        23.0688827724       33.9091440584       28.4218169617
 Cs        22.9950598519       33.7829990313       39.0487046128
 Cs        28.4610012958       12.1064389702       12.2254810351
 Cs        28.4226958366       12.1010025383       22.9792128249
 Cs        28.4366988497       12.1437257807       33.8284605416
 Cs        28.5205320101       23.0750513236       12.1320482989
 Cs        28.4919304906       23.0073487806       23.0190383505
 Cs        28.3994061273       23.0371901513       33.9356889584
 Cs        33.8160696082       12.1048794593        7.1259114017
 Cs        33.7837229103       12.0805348204       17.5377160507
 Cs        33.8259508382       12.1523253591       28.4328470894
 Cs        33.8660932597       12.1099655217       38.9989894727
 Cs        33.9404154894       23.0509749153        6.8668839314
 Cs        33.8960266508       22.9635216422       17.6376523356
 Cs        33.9280127647       23.0450714054       28.4182592059
 Cs        33.6917267946       22.7938550172       39.0423294574
 Cs        33.8452866579       33.9210881170        7.0145138347
 Cs        33.8530876631       33.8641258507       17.5271658239
 Cs        33.8329811079       33.8788909348       28.4980698603
 Cs        33.7016063758       33.9657516408       39.1654818608
 Cs        28.4384697245       33.7973825381       12.1012740118
 Cs        28.4625708144       33.9126592179       23.0624369917
 Cs        28.5342413669       33.8567113190       33.8777385968
 Cs        39.0108522136       12.1578858703       12.2456508598
 Cs        38.9822335498       12.1676533634       22.9777245145
 Cs        39.0218056961       12.0975145757       33.8365219781
 Cs        38.9700209105       23.0881405844       12.1807196225
 Cs        23.0031976862       39.1431434801       22.9420542515
 Cs        39.0446151784       23.1387706630       33.9543333723
 Cs        39.0143548906       33.8463757722       12.0964313504
 Cs        39.0847356695       34.1275603260       23.3401352734
 Cs        38.7795038150       33.8784088820       33.9710734842
 Cs         7.0593331041       12.1968203037        7.1162210870
 Cs         6.9977577289       12.2404408530       17.6095083888
 Cs         6.9279856314       11.9803911446       28.3129059655
 Cs         7.2019147100       11.8543682571       38.9752934043
 Cs         6.9359006987       23.1130946631        7.2099782568
 Cs         6.8829604166       22.9881135020       17.6962586540
 Cs         6.9200443610       23.0225020449       28.4295101443
 Cs         7.1216487163       22.8300892228       38.9534926813
 Cs         7.0968035410       34.2117190388        7.1436611105
 Cs         6.8976935166       33.9031114710       17.5794712471
 Cs         7.0032678209       33.7723620959       28.4319018903
 Cs         7.1052095142       33.8224710990       38.9489670779
 Cs        17.4739017014       12.1270210272        6.9043037449
 Cs        17.5905853725       12.1339595042       17.6624464792
 Cs        17.5389365809       12.1017138942       28.4943821822
 Cs        17.5195178370       12.1056730429       39.0557137148
 Cs        17.7326965678       23.2042881331        6.9526671451
 Cs        17.5297026862       23.0245993998       17.5814062896
 Cs        17.5774676933       22.9673672509       28.4584048172
 Cs        17.5992245939       23.0330461649       39.1115822531
 Cs        17.3807912165       33.7374077269        7.1309997485
 Cs        17.5722546884       33.9721540711       17.5542174613
 Cs        17.6337289848       33.8821134543       28.4009599628
 Cs        17.5962118351       33.8070100906       39.0607649621
 Cs        28.5965778917       12.2707585645        7.0899443026
 Cs        28.4461491154       12.0292855876       17.5912348216
 Cs        28.4175910444       12.1375531024       28.4014683400
 Cs        28.4033360004       12.2169599006       39.0197687132
 Cs        28.2557381098       22.7828479870        6.9324451795
 Cs        28.4797040105       22.9980235069       17.5722461031
 Cs        28.4562055737       23.0513531599       28.4739769425
 Cs        28.2122601335       23.1834089825       39.1653649492
 Cs        28.5109207983       33.8923999299        6.8773000107
 Cs        28.4449684871       33.8674383612       17.6396431541
 Cs        28.4968819921       33.9774160270       28.4781303807
 Cs        28.4133913166       33.8721074858       39.1299889821
 Cs        38.9130573959       11.8088220068        7.1086373213
 Cs        38.9525890441       12.1853072284       17.5184718347
 Cs        38.9984138802       12.2483688686       28.3862250805
 Cs        38.9381323011       12.1624668135       38.9337707898
 Cs        39.0704191036       22.8670501769        7.1792195671
 Cs        39.1110716232       23.2380367270       17.3342316376
 Cs        39.1239712768       22.9450512537       28.5260694712
 Cs        38.8914282484       23.1510662901       39.0427000769
 Cs        38.9280640970       33.8189122349        7.0446754026
 Cs        39.0408047509       33.7218852065       17.5102469538
 Cs        38.9062355475       33.7743019641       28.7401725135
 Cs        38.8460064910       34.2190870300       39.0149453513
 Cs        12.1662584048        6.9879651697       12.1774863711
 Cs        12.1707238373        6.9840539590       23.0446851438
 Cs        12.0570809658        7.0145887039       33.7936383467
 Cs        12.2307488210       17.5743378653       12.1253693678
 Cs        12.1077735643       17.6120337785       23.0949167806
 Cs        12.1697210190       17.5095875508       33.8250047528
 Cs        12.1110930575       28.4253524179       12.2476156584
 Cs        12.1249154110       28.4298883823       22.9778293164
 Cs        12.2035394085       28.4587077462       33.8524166736
 Cs        12.0535587780       39.0895239573       12.2712103998
 Cs        12.2032975535       38.9979526658       23.0253633096
 Cs        12.1931375079       39.0357076382       33.8605273558
 Cs        22.8134454436        7.0021601861       12.3230959968
 Cs        23.0245069123        6.8380821556       23.1176637137
 Cs        23.0891196404        6.9686312035       33.7384518044
 Cs        22.9353698765       17.4691141175       12.1611496447
 Cs        23.0150097376       17.5526900266       23.0255117496
 Cs        22.9462574799       17.6033072466       33.9009783358
 Cs        23.0677809623       28.5395272809       12.1430837034
 Cs        23.0197461185       28.4770520904       23.0093552606
 Cs        23.0481491781       28.4725494955       33.9083742705
 Bi        31.1997946086       36.6560478217       36.7003208056
 Bi        14.8472091149       20.2659266953       36.7935085831
 Bi        14.8102422189       31.2031540563       14.7757959133
 Bi        14.7545467499       31.2907976122       25.7225161275
 Bi        14.8209025277       31.2705010646       36.6699140838
 Bi        20.2450645824        9.3253131793        9.3706777933
 Bi        20.3128891562        9.2579456071       20.3977603830
 Bi        20.2506276612        9.2243372956       31.1760449427
 Bi        20.1863246528       20.1829550757        9.2400715241
 Bi        20.2893847201       20.2841621708       20.2491802159
 Bi        20.2856969077       20.2879207954       31.2473557250
 Bi        36.7411077366       20.3056209597       14.8050867354
 Bi        36.7978798098       20.3413534900       25.6757538966
 Bi        20.3543126692       31.2832147188        9.3106708301
 Bi        20.2711193846       31.2285994562       20.2764668499
 Bi        20.3183836366       31.2879609829       31.2414973086
 Bi        36.7099765303       20.2236677902       36.7065008128
 Bi        36.6315628745       31.2679724299       14.7124748512
 Bi        36.7925366869       31.2558909456       25.7595545957
 Bi        14.8327866276       14.8262988971        9.2426364256
 Bi        14.7251652290       14.7232901491       20.3316634347
 Bi        14.7996040686       14.8054412529       31.2245463230
 Bi        14.7224595360       25.6512982165        9.3213274167
 Bi        14.7943535491       25.7629624384       20.2853753889
 Bi        14.7490785540       25.7252324612       31.2813974708
 Bi        14.8129295561       36.7730054716        9.4168542685
 Bi        14.8127628638       36.7797712354       20.1942234109
 Bi        14.7995199136       36.6788758162       31.2450144290
 Bi        31.1976897988        9.2343924402        9.3802822060
 Bi        31.1614328469        9.2022913829       20.2196082829
 Bi        31.2481071847        9.3230154512       31.2178490394
 Bi        36.5743648180       31.2084565585       36.8591007834
 Bi        31.2709568927       20.3541901174        9.2889274638
 Bi        31.2300980302       20.2663084944       20.2722892885
 Bi        31.2812980180       20.2867801234       31.2982133047
 Bi        31.1632617079       31.1941487298        9.1965302623
 Bi        31.3466614248       31.2836660426       20.3107843854
 Bi        31.2764267644       31.2147659651       31.2339731518
 Bi        25.6609078288       14.7108847203        9.3358654655
 Bi        25.7481048117       14.7912505621       20.2724223845
 Bi        25.7163938990       14.7325782228       31.2795161985
 Bi        25.8176765098       25.8160611013        9.2221390272
 Bi        25.7609941296       25.7369350398       20.2498919547
 Bi        25.7459056122       25.7517131381       31.2745934756
 Bi        25.7780916428       36.6925132387        9.3559658573
 Bi        25.7361830421       36.6932650490       20.3653667469
 Bi        25.8292133645       36.7437585263       31.1834672452
 Bi         9.3773600032       31.2697740004       31.2597444710
 Bi        31.2538739546       25.7338157686       25.7465893545
 Bi        31.1550157582       25.7214343066       36.8339109884
 Bi        36.7028789964       14.7923279301        9.3334525071
 Bi        36.6259368829       14.7531692237       20.2761131398
 Bi        36.6529138001       14.7389182408       31.2471163765
 Bi        36.6735604169       25.7869504259        9.2856440686
 Bi        36.8330001768       25.6893464603       20.3385650092
 Bi        36.6711822542       25.7195424310       31.2866837811
 Bi        36.7220855159       36.7392918369        9.3018601979
 Bi        36.7539251086       36.7501134923       20.2936100824
 Bi        36.5979695664       36.8012013403       31.2936863757
 Bi        31.2773607721       36.6489840668       14.7668721341
 Bi        31.2084505015       36.8005605142       25.7664900033
 Bi        25.7566080396        9.2044243875       14.8579015885
 Bi        25.7177321699        9.3261510530       25.6896834504
 Bi        25.7591648933        9.2813328798       36.6577997986
 Bi        25.7302223135       20.2764652588       14.6948147658
 Bi        25.7755763907       20.2762074278       25.7699147400
 Bi        25.6893069385       20.2892313035       36.7433601397
 Bi        25.7430477519       31.2923626577       14.8306853864
 Bi        25.7745831839       31.2534280071       25.7475733547
 Bi        25.7980155560       31.1914153602       36.7681324876
 Bi         9.3693649233       14.7378360814       14.7818138382
 Bi         9.2131020659       14.8021469867       25.7976303053
 Bi         9.4365621249       14.8185560712       36.7315427463
 Bi         9.1805712188       25.7419948557       14.8785686547
 Bi         9.3152115669       25.7323611829       25.6990486413
 Bi         9.3437335534       25.7806455863       36.6823926419
 Bi         9.3577670446       36.6573095393       14.8166530053
 Bi         9.3349313453       36.7064024695       25.7548291077
 Bi         9.3328763041       36.7394822788       36.7221517022
 Bi        20.2781016632       14.7258127946       14.8485309866
 Bi        20.2922090737       14.7834301167       25.7445871804
 Bi        20.2094684753       14.8045236492       36.7853006181
 Bi        20.2963328436       25.7208237876       14.7000010327
 Bi        20.2813250127       25.7625435817       25.7527605833
 Bi        20.3259606924       25.7397423572       36.6860178126
 Bi        20.2766338264       36.8235274957       14.8580301187
 Bi        20.3244705840       36.7352891922       25.6776464995
 Bi        20.2840801838       36.6584997198       36.6868962890
 Bi        36.6420804331        9.3133738708       14.7748051756
 Bi        36.6499062217        9.2948890171       25.7456446470
 Bi        36.7093146625        9.2500451050       36.6995830835
 Bi        14.7516013325        9.3621650345       14.7909133643
 Bi        14.8024254213        9.2202381095       25.8354185696
 Bi        14.8063097111        9.2903862641       36.5827307745
 Bi        31.2749800177       14.8025396326       14.7445923488
 Bi        31.2750910078       14.7580900485       25.7313353583
 Bi        31.2497942555       14.7199917305       36.6573517832
 Bi        14.7233986857       20.2788958511       14.8469613774
 Bi        14.7864291164       20.2905269764       25.7468207452
 Bi         9.2924449404        9.2727647374        9.3378501444
 Bi         9.3110283677        9.3003331413       20.2977495138
 Bi         9.3010538108        9.4187653988       31.2372905484
 Bi         9.3273750017       20.2251912751        9.3711009150
 Bi         9.2772012023       20.3026713780       20.3950229483
 Bi         9.2368371950       20.2265623260       31.1747815350
 Bi        31.2770571244       25.7480601078       14.8242568271
 Bi         9.2314718996       31.1926523372        9.4221762894
 Bi         9.2356832389       31.2172920832       20.2072943301
 Ag        25.7812532048       31.2095335923       20.2998113511
 Ag        25.8096267304       31.2342979321       31.2408325010
 Ag        37.4105767694        8.6353772826        8.6443785768
 Ag        36.9217128960        9.1498159559       20.2601334576
 Ag        36.8820232743        9.0667347208       31.2137328669
 Ag        36.9149711273       20.2990889327        9.1106490518
 Ag        38.1964384315       20.8524974156       20.7164649870
 Ag        36.9351926061       20.2509104764       31.1647160147
 Ag        36.8665846757       31.2524545136        9.0788309575
 Ag        36.8841288637       31.2199520291       20.2464138437
 Ag        36.7558083770       31.2445308756       31.3029710500
 Ag         9.1195390058       31.2109414460       25.7265605887
 Ag         9.1481486860       31.2541960161       36.9054011849
 Ag        20.2599421126        9.1442968351       14.9080341743
 Ag        25.7628028543       20.2563048146       31.2471922127
 Ag        19.5825811237        7.8851860911       26.1589653446
 Ag        20.2765769181        9.0644240593       36.8300897804
 Ag        25.7515832364       20.2703576728       20.2502877212
 Ag        25.7276996134       20.2621066619        9.2210733605
 Ag        20.2263589687       20.2283317472       14.7582724081
 Ag        26.0893819024       30.6287128344        7.8616158555
 Ag        20.2806270566       20.2769370507       25.7508373232
 Ag        19.8377235760       19.5784299707       38.1382213145
 Ag        20.2862970705       31.2639468487       14.8044342075
 Ag        20.2774209017       31.2401565577       25.7461700848
 Ag        20.3507224852       31.1744975281       37.1482055891
 Ag        14.8256503911       14.8251220093       14.8115801269
 Ag        14.7770960995       14.7813682830       25.7742211974