    1296
 i =       10, E =    -27991.4841265442
 Cs        33.6021044443        7.3028557896       12.4284990522
 Cs        33.5199924137        7.3117773206       23.0249227600
 Cs        33.5965471662        7.3337831149       33.6079035642
 Cs        33.6200605646       17.7297286396       12.4138533601
 Cs        33.6161685797       17.7174460372       22.9677597793
 Cs        33.5787623931       17.6958225637       33.6042955825
 Cs        33.5538434939       28.3052333930       12.3874125390
 Cs        33.6184022164       28.3067541530       23.0687076956
 Cs        33.5871013524       28.3490465393       33.6280569803
 Cs        33.5855826431       38.6655747366       12.4124615539
 Cs        33.5294130470       38.7098681331       22.9981030862
 Cs        33.5748987764       38.6760207277       33.6261903250
 Cs        12.4669118794       12.4603051014       12.4036613733
 Cs        12.4295619175       12.4425971296       23.0980281810
 Cs        12.4877936063       12.4880274845       33.5393052932
 Cs        12.4386163855       22.9810264990       12.4465631909
 Cs        12.3587981689       23.0123909405       23.0247419050
 Cs        12.4339613813       22.9452251983       33.5824880020
 Cs        12.4300258037       33.5888581780       12.5130620558
 Cs        12.4362342080       33.5671829653       22.9352050910
 Cs        12.4206336105       33.5820547466       33.5967105236
 Cs        23.0044592911       12.4443802674       12.4468824837
 Cs        23.0233970195       12.3600700658       23.0296080467
 Cs        22.9417526386       12.4363702533       33.5926884364
 Cs        23.0218730882       23.0044466622       12.3987326257
 Cs        23.0196338317       23.0129396381       23.0389933977
 Cs        23.0235098442       23.0063904663       33.6702191800
 Cs        23.0345199661       33.5810685595       12.4400701578
 Cs        23.0204187349       33.6545290355       23.0261000065
 Cs        23.0912245581       33.5702347041       33.5895206300
 Cs        33.5713894828       12.3715866352       12.4540766313
 Cs        33.5577350872       12.4031164202       22.9756360813
 Cs        33.5948785361       12.4138192314       33.6120735805
 Cs        33.5686429622       23.0653106206       12.4079480855
 Cs        33.6413086104       23.0009077424       23.0232544516
 Cs        33.5637438315       23.0229421344       33.6327684347
 Cs        33.5613930853       33.5612219808       12.3866903536
 Cs        33.5723813312       33.6184170828       23.0511748805
 Cs        33.5167729427       33.5933671772       33.6078818489
 Cs        12.4343291774        7.3990072023        7.3994748080
 Cs        12.4888262590        7.3540854804       17.7157711817
 Cs        12.4168771783        7.2850763569       28.3497342670
 Cs        12.1178796728        7.4399661795       38.5836986975
 Cs        12.4692530896       17.6606468959        7.2464788053
 Cs        12.4151647247       17.6921962131       17.7664008808
 Cs        12.4031240370       17.7021272616       28.3340025736
 Cs        12.4268379485       17.6759631782       38.7399817222
 Cs        12.4621247397       28.3208665002        7.4084188211
 Cs        12.4021731878       28.3182641664       17.6963694720
 Cs        12.4202250448       28.2970144362       28.3033882652
 Cs        12.4891455612       28.3106058842       38.6887481723
 Cs        12.1097122703       38.5914685663        7.4426096393
 Cs        12.4227308245       38.7340179354       17.6868687189
 Cs        12.4914028181       38.6642193721       28.3146489077
 Cs        12.4280818307       38.6262497331       38.6278129348
 Cs         7.4199587173        7.4184929532       17.5138371400
 Cs         7.4223404421        7.4160250920       28.2475156832
 Cs         7.4093468554       17.4915512812        7.4377885612
 Cs         7.3517923424       17.7079848261       17.7220501373
 Cs         7.4297998258       17.7922016744       38.6114623742
 Cs         7.4213216046       28.2097050081        7.4119672286
 Cs         7.3176211407       28.3007129380       28.3044980184
 Cs         7.4182764614       28.5183388093       38.6108511916
 Cs         7.4208111606       38.5977702423       17.7993171686
 Cs         7.4164226374       38.5980273390       28.5226756575
 Cs        23.1623602602        7.3913218881        7.4575794013
 Cs        22.9655802561        7.2903782452       17.7327205778
 Cs        22.9824121721        7.2684771144       28.2735889652
 Cs        22.8613291598        7.4121499339       38.6114781659
 Cs        23.1181622361       17.7608161900        7.3026329794
 Cs        23.0296709143       17.6953625660       17.6992804900
 Cs        23.0112968347       17.6871552854       28.3509559171
 Cs        22.9773838325       17.7568690768       38.7730354801
 Cs        17.5139989976        7.3986746359        7.4414966930
 Cs        17.7070867111        7.3780768742       17.7421049925
 Cs        17.8006298639        7.4284479712       38.6047732101
 Cs        23.0203594604       38.6623507344       33.5469551566
 Cs        17.6904751962       17.6795536868       17.7279076579
 Cs        17.6996546429       17.7018304600       28.3386201964
 Cs        23.0508378795       38.6461645135       12.5007708657
 Cs        17.6943356318       28.3214220608        7.4159631324
 Cs        17.7052561585       28.3137020198       17.6827395357
 Cs        17.6928324621       28.3302840978       28.3395498119
 Cs        17.7127752665       28.2948158750       38.6857059074
 Cs        17.8123919507       38.6018775014        7.4174329890
 Cs        17.7157485684       38.6502775733       28.3013722570
 Cs        17.5123652030       38.5955765089       38.6083703415
 Cs        22.8996507242       28.2382075356        7.2959365585
 Cs        23.0117956690       28.3225833315       17.6950408399
 Cs        23.0375165392       28.3354681452       28.3583968112
 Cs        23.0152886267       28.2693875950       38.7620982886
 Cs        22.8744170970       38.6280581038        7.4523084101
 Cs        23.0242806121       38.7287049598       17.7528700936
 Cs        23.0171972895       38.7372558438       28.2818225932
 Cs        28.2240584687        7.4082638277        7.4065353540
 Cs        28.2932922497        7.3330976660       28.3192107656
 Cs        28.5223776678        7.4095345957       38.6099852124
 Cs        28.3315757202       17.6858201830        7.3882643656
 Cs        28.3457114130       17.7000978052       17.6790462951
 Cs        28.3359336220       17.6791419407       28.3437492695
 Cs        28.2969031571       17.6960073622       38.7180305485
 Cs        28.3401017370       28.3426780093       17.7205725200
 Cs        28.3590705945       28.3194903690       28.3483189519
 Cs        23.1771513001       38.5973161123       38.6119490401
 Cs        28.5266811227       38.6213769142        7.4354550455
 Cs        28.2994376937       38.6616221904       17.7184802316
 Cs        28.2302050407       38.5993258776       38.6211417612
 Cs        38.6114717491        7.4176693473       17.8087783663
 Cs        38.6050740082        7.3900944028       28.5266363193
 Cs        38.6348833874       17.8137355553        7.4168734514
 Cs        38.6674134963       17.7036966271       17.7340061043
 Cs        38.6700189567       17.6986998979       28.3202531304
 Cs        38.6113679542       17.4833294431       38.6342659007
 Cs        33.9297140088        7.4070926974        7.4254285386
 Cs        33.5804861230        7.2305094633       17.7012614556
 Cs        38.6234754160       28.5254553561        7.4050946023
 Cs        38.6617436484       28.3235067861       17.7032512676
 Cs        38.6433691030       28.2948580898       28.3196766764
 Cs        38.6163300795       28.2070557331       38.6134256850
 Cs        33.5272703623        7.2989133907       28.3317073177
 Cs        33.6104236019        7.3747039888       38.6318285418
 Cs        38.6038425163       38.6256755413       17.4970020156
 Cs        38.6235775435       38.5977558369       28.2239627812
 Cs        33.5645523371       17.7020938075        7.3479065869
 Cs        33.6260821211       17.7440915701       17.7355874085
 Cs        33.6195193600       17.7160738139       28.3025019488
 Cs        33.5341738387       17.6774226342       38.7417704386
 Cs        33.5581509101       28.3635753985        7.2174533577
 Cs        33.6234214873       28.3197646976       17.7474191128
 Cs        33.6379883814       28.2680210174       28.2884662434
 Cs        33.5804006520       28.3145406936       38.8003309761
 Cs        33.6050677865       38.6189205059        7.3903186958
 Cs        33.5309786144       38.7099567920       17.6921204654
 Cs        33.5889718522       38.7882950531       28.3265428317
 Cs        33.9284315309       38.5954912513       38.6076650255
 Cs         7.4131994644        7.3973085880       12.4309714126
 Cs         7.4093033182        7.4084245362       23.1803937995
 Cs         7.4483290313        7.4365691721       33.9208546231
 Cs         7.3746077786       17.6976001866       12.4996777404
 Cs         7.2449860146       17.7491657535       23.0335707419
 Cs         7.2791168936       17.6742884723       33.6131812990
 Cs         7.2426839450       28.2956304647       12.4300077934
 Cs         7.2513537439       28.2538739810       22.9841791348
 Cs         7.3105175602       28.3214787280       33.5406448103
 Cs         7.4328845282       38.5897156748       12.1053689485
 Cs         7.4161547106       38.5948534003       22.8541908657
 Cs         7.3990478958       38.6261274401       33.6045863780
 Cs        17.7160748634        7.3753008418       12.5020546130
 Cs        17.7317166703        7.2803576738       23.0251227459
 Cs        17.6781572248        7.2830635310       33.6083780150
 Cs        17.6776164999       17.6686114649       12.4115966145
 Cs        17.6932954480       17.6880915301       23.0386023757
 Cs        17.6959686023       17.6949413658       33.6080234339
 Cs        17.7216173914       28.2963813240       12.4171177233
 Cs        17.6896996109       28.3328914810       23.0145491423
 Cs        17.7284613220       28.2966002422       33.6071174555
 Cs        17.7259992895       38.7729662065       12.4391739734
 Cs        17.7477411623       38.7315013422       22.9980110504
 Cs        17.7130013062       38.6743098834       33.5360630606
 Cs        28.2941578842        7.2427562189       12.4230690616
 Cs        28.2478878702        7.2412241383       22.9931831200
 Cs        28.3176191257        7.3292369180       33.5431211455
 Cs        28.3320256592       17.7114647063       12.4154394201
 Cs        28.3496203096       17.6888582041       23.0216381621
 Cs        28.3032812273       17.7081103363       33.6147986463
 Cs        28.3487470014       28.3566706830       12.3955631592
 Cs        28.3511423290       28.3312553074       23.0297552574
 Cs        28.3508526736       28.3157487330       33.6307367929
 Cs        28.3148086653       38.6490201517       12.4955919050
 Cs        28.2584545705       38.7738134030       23.0366978923
 Cs        28.3378634423       38.7350252619       33.6206976730
 Cs        38.6053312569        7.4049664757       12.0947658881
 Cs        38.5759142212        7.3810870339       22.8579683083
 Cs        38.6342765012        7.3807774118       33.6069125893
 Cs        38.6875874366       17.7015089795       12.4728327093
 Cs        38.7610043490       17.6824752664       22.9863741990
 Cs        38.6851003302       17.6895920824       33.5585612054
 Cs        38.6565224560       28.3225175232       12.4719527710
 Cs        38.7629990512       28.3615847298       23.0225779430
 Cs        38.6336231137       28.3434254250       33.5842563005
 Cs        38.6280031668       38.6201912703       12.4169916751
 Cs        38.5879719729       38.6440441402       23.1625874495
 Cs        38.5991613367       38.6011673719       33.9351902320
 Cs         7.3680409322       12.4320208034       12.4281919254
 Cs         7.3158280772       12.4747223859       23.0351216994
 Cs         7.3959780146       12.4316757407       33.5996160192
 Cs         7.3673810315       22.9621334322       12.4946118025
 Cs         7.3043244957       23.0179665134       23.0252737939
 Cs         7.3210377890       23.0057783882       33.5546574178
 Cs         7.3532024489       33.6097968083       12.4559231000
 Cs         7.3320196998       33.5325595368       22.9921453185
 Cs         7.3451376871       33.5927351477       33.5998685616
 Cs        17.7349294036       12.4722146470       12.4104470483
 Cs        17.7631182758       12.4014813682       23.0631456545
 Cs        17.5949971057       12.4461703243       33.5828784658
 Cs        17.6463843695       22.9685824847       12.4382453808
 Cs        12.4320856353       12.4195992405        7.3576122765
 Cs        12.4400839406       12.4452242524       17.7312110629
 Cs        12.4327658192       12.4452749290       28.4307804084
 Cs        12.4362450852       12.4307630564       38.6318315737
 Cs        17.6901662857       23.0194927700       23.0302727283
 Cs        12.4642728629       22.9797882312        7.3243234073
 Cs        12.3874503762       23.0252565597       17.7837422209
 Cs        12.3950789932       22.9890770473       28.2802434258
 Cs        12.4724612355       22.9995045233       38.6730510633
 Cs        17.7584030138       22.9851672925       33.6246025937
 Cs        12.4354468350       33.5870897633        7.4540006854
 Cs        12.4411496596       33.5664488438       17.5851889040
 Cs        12.4330549474       33.5661844206       28.3139592514
 Cs        12.4292180759       33.5877849027       38.6793400727
 Cs        17.6859064066       33.6010353036       12.4429160238
 Cs        17.7603776706       33.6152242808       22.9776532406
 Cs        17.7133805521       33.5720232601       33.5898963920
 Cs        23.0072162502       12.4618388469        7.3278503545
 Cs        23.0429902340       12.3900185456       17.7879995358
 Cs        22.9836896089       12.3941999723       28.2782426870
 Cs        22.9967468177       12.4717408736       38.6936259168
 Cs        23.0071796083       23.0046991571        7.3844828439
 Cs        23.0214276291       23.0100999493       17.6882212282
 Cs        23.0260977291       23.0104275588       28.3590241025
 Cs        23.0076099407       23.0036929853       38.7116627096
 Cs        23.0379112303       33.5607276730        7.3187140405
 Cs        22.9928255496       33.6288082321       17.7814177597
 Cs        23.0495572171       33.6157874296       28.2753435025
 Cs        23.0311448729       33.5318534735       38.6892535218
 Cs        28.3624800270       12.4114876801       12.4458465783
 Cs        28.2787291755       12.3849376808       22.9958943012
 Cs        28.3135746396       12.4371066145       33.5939332106
 Cs        28.3829327326       23.0469839012       12.4252583538
 Cs        28.3404541793       23.0073863634       23.0260875279
 Cs        28.2828655332       23.0082623286       33.6425506428
 Cs        33.5804257080       12.3988214664        7.3944862772
 Cs        33.5686243420       12.4116300541       17.6488512578
 Cs        33.5796510349       12.4223310015       28.3235473471
 Cs        33.5984477309       12.4086831196       38.6914619772
 Cs        33.5571496124       23.0471679949        7.2913607006
 Cs        33.6242917230       22.9696202112       17.7303633333
 Cs        33.6255743202       23.0426249923       28.3165593941
 Cs        33.5334081584       22.9904667008       38.7342270666
 Cs        33.5985090120       33.6022423700        7.3438644537
 Cs        33.5826271585       33.5906584319       17.7073874250
 Cs        33.5938453691       33.6089574170       28.3677686405
 Cs        33.5755088611       33.6150646676       38.6901199362
 Cs        28.2982971279       33.5502836537       12.4018163093
 Cs        28.2800701628       33.6277547413       23.0464236257
 Cs        28.4499447673       33.5736637749       33.5915387416
 Cs        38.6450706742       12.3978856558       12.4421343122
 Cs        38.6640386803       12.4410279581       22.9947700613
 Cs        38.6805768502       12.4141720356       33.6026224786
 Cs        38.6602331494       23.0317206635       12.4494960655
 Cs        23.0000172250       38.7157929762       23.0293819394
 Cs        38.6734105833       23.0077407800       33.5961981606
 Cs        38.6686302374       33.5833141602       12.4143622892
 Cs        38.6810615408       33.5870532085       23.0314818178
 Cs        38.5873476583       33.5958553723       33.6111799086
 Cs         7.4117996274       12.4151427952        7.3948317705
 Cs         7.3170036445       12.4845985640       17.7040605850
 Cs         7.2801985177       12.4154872616       28.3576281597
 Cs         7.4500730820       12.1033296881       38.5867625878
 Cs         7.3983992707       23.1393240013        7.4515674488
 Cs         7.2852650337       22.9747854983       17.7400204507
 Cs         7.2469034082       22.9855118478       28.2613927513
 Cs         7.4140725948       22.8571922321       38.6147285536
 Cs         7.4318588132       33.9150286982        7.4402667246
 Cs         7.2839315897       33.5936225251       17.6808658978
 Cs         7.3070318809       33.5239320919       28.3223135922
 Cs         7.3940505539       33.6013834808       38.6335210189
 Cs        17.6765331266       12.4614625671        7.2444279702
 Cs        17.7171486964       12.4073173928       17.7621256448
 Cs        17.6980344185       12.4157626729       28.3375455038
 Cs        17.6762890786       12.4314523881       38.7402213945
 Cs        17.7795100412       23.1028833349        7.3038817797
 Cs        17.6995256508       23.0114418838       17.7008188375
 Cs        17.6941931175       23.0046143364       28.3479894042
 Cs        17.7437475342       22.9958180229       38.7518185333
 Cs        17.6943429844       33.5588572305        7.4046900306
 Cs        17.6990586551       33.6053527650       17.6921759982
 Cs        17.7284166662       33.5974436004       28.3024852959
 Cs        17.7119921600       33.5242439507       38.7037285538
 Cs        28.3394679995       12.4535563579        7.3937524173
 Cs        28.3454919436       12.3948912798       17.6972933308
 Cs        28.3051117734       12.4099289754       28.3072506022
 Cs        28.3205586254       12.4806672379       38.7161271874
 Cs        28.2396162128       22.9004779680        7.2799165133
 Cs        28.3301006737       23.0222277208       17.6978785144
 Cs        28.3510368421       23.0027030955       28.3501217826
 Cs        28.2436443887       23.0269738567       38.7958072294
 Cs        28.3570185107       33.5617553824        7.2358874778
 Cs        28.3200299537       33.6125466067       17.7527424477
 Cs        28.3513850054       33.6189325945       28.3418207232
 Cs        28.3434372758       33.5948047428       38.7455014780
 Cs        38.6149622203       12.0811614101        7.4117358634
 Cs        38.6391248621       12.4519330255       17.6783389036
 Cs        38.6892781861       12.4702655169       28.3254909445
 Cs        38.6434307530       12.4017305448       38.6374468606
 Cs        38.6113129939       22.8679419923        7.4127181602
 Cs        38.7421402849       23.0388595551       17.6437002187
 Cs        38.7596031023       23.0231683159       28.3498813979
 Cs        38.5894579006       23.1485425507       38.6494994477
 Cs        38.6270310183       33.5993724558        7.3851196424
 Cs        38.6897573804       33.5528061349       17.6932588309
 Cs        38.6336156958       33.5627738299       28.3570056876
 Cs        38.5987239352       33.9231372086       38.6138792770
 Cs        12.4482055292        7.3592854126       12.4336885720
 Cs        12.4729327692        7.3589675445       23.0288766936
 Cs        12.4424467334        7.3926320535       33.5961112397
 Cs        12.4780092116       17.7202428964       12.4161227449
 Cs        12.4023636683       17.7466345262       23.0520409803
 Cs        12.4355152544       17.5978828035       33.5786646349
 Cs        12.4106976066       28.3277985463       12.4399556073
 Cs        12.3989894925       28.2702375248       22.9890895965
 Cs        12.4394671357       28.3042512747       33.5766687010
 Cs        12.4151463690       38.6662833662       12.4567793801
 Cs        12.4804705748       38.6433597317       23.0031401513
 Cs        12.4302325209       38.6678497425       33.5934860060
 Cs        22.9759431037        7.3726616283       12.5016437654
 Cs        23.0204887618        7.2955600520       23.0364383503
 Cs        23.0072413890        7.3485134306       33.5526447217
 Cs        22.9947013142       17.6383114397       12.4438865726
 Cs        23.0290980511       17.6841961141       23.0291934066
 Cs        22.9931513019       17.7485403953       33.6279109668
 Cs        23.0442724860       28.3739133189       12.4332273817
 Cs        23.0202535975       28.3397057260       23.0303972110
 Cs        23.0425620687       28.2620957333       33.6236064229
 In        31.0498586264       36.3258543303       36.3369170134
 In        15.0072118251       20.3150607605       36.4126588063
 In        15.0215366516       30.9876739797       14.9641767499
 In        14.9737575025       31.0568433389       25.6466959864
 In        14.9985898968       31.0286647312       36.3343171637
 In        20.3390694708        9.7192998286        9.6684254017
 In        20.4064272843        9.6532550091       20.4291184945
 In        20.3156683670        9.6073858867       31.0221005345
 In        20.3300122923       20.2989761300        9.6259351204
 In        20.3572071781       20.3481559725       20.3600340508
 In        20.3646743993       20.3594518923       31.0367791340
 In        36.3488012287       20.3645088592       15.0135624924
 In        36.4304759345       20.3725485669       25.6354405794
 In        20.4349873628       31.0377506122        9.6888866605
 In        20.3548291875       30.9993774591       20.3573789415
 In        20.3786638416       31.0560803278       31.0627845364
 In        36.3284597854       20.3042081796       36.3838155922
 In        36.3216412664       31.0533223098       14.9838028578
 In        36.3426727331       31.0148691963       25.6522975536
 In        15.0294578030       15.0207048811        9.5947983171
 In        14.9782154262       14.9543839462       20.3911126367
 In        15.0085261472       15.0145029260       31.0084922330
 In        14.9878103085       25.5814504682        9.6943259526
 In        15.0133750080       25.6733867403       20.3582687567
 In        14.9745166069       25.6472260796       31.0630001219
 In        14.9995518907       36.3797409549        9.7434562986
 In        15.0089513869       36.3969729518       20.2970402603
 In        14.9928418812       36.3159492234       31.0451249568
 In        31.0509181510        9.6307657032        9.7309132805
 In        31.0003260957        9.5843385829       20.3113092083
 In        31.0419898481        9.6770730194       31.0429412155
 In        36.2886324020       31.0358533150       36.4098222407
 In        31.0494704121       20.4198846170        9.6673882246
 In        31.0140099468       20.3572660401       20.3581147893
 In        31.0657131408       20.3453510266       31.0610801026
 In        30.9946876260       30.9914797190        9.5791603424
 In        31.0674506686       31.0591230923       20.3685583611
 In        31.0729826380       30.9983782032       31.0160965779
 In        25.6284261842       14.9820441342        9.7005917258
 In        25.7029114373       15.0134645798       20.3540376313
 In        25.6516947723       14.9510580230       31.0645336041
 In        25.7148339449       25.7036560828        9.6077652304
 In        25.6810310623       25.6797020560       20.3587396855
 In        25.6963740991       25.6617267007       31.0424694492
 In        25.7090946868       36.3105163582        9.6664382967
 In        25.6344879196       36.3681900912       20.4248269846
 In        25.7230691729       36.4034418661       31.0284121664
 In         9.6757030857       31.0189135088       31.0288478395
 In        31.0327551479       25.6497634618       25.6816350020
 In        31.0079698338       25.6830610878       36.4501381494
 In        36.3697810765       14.9720479100        9.6603847605
 In        36.3272161802       15.0002357031       20.3608777234
 In        36.3291691783       14.9678391046       31.0526253246
 In        36.3174596147       25.7063176139        9.6429439506
 In        36.4347709312       25.6396277239       20.3955270002
 In        36.3380378283       25.6381337827       31.0432338318
 In        36.3822792771       36.3699237859        9.6483464180
 In        36.3376270387       36.3640984520       20.3285925317
 In        36.2928309977       36.3953741580       31.0516111661
 In        31.0526539070       36.3241773601       14.9971528263
 In        31.0166367132       36.4314778942       25.7110942358
 In        25.7195646180        9.5985632346       15.0139550128
 In        25.6395413609        9.6573600288       25.6370248219
 In        25.7038473719        9.6837431503       36.3478788558
 In        25.6716987469       20.3628464097       14.9533036572
 In        25.6984154748       20.3378021332       25.6990695691
 In        25.6425724691       20.3722159350       36.3873290775
 In        25.6748936469       31.0644550926       15.0353575395
 In        25.6955190956       31.0105618793       25.7013018300
 In        25.7179984686       31.0016106183       36.4162224426
 In         9.7102317655       14.9733764337       15.0096305476
 In         9.5909373695       15.0091769028       25.7115449105
 In         9.7177719640       14.9925555590       36.3215394439
 In         9.5911685575       25.6995160941       15.0137938771
 In         9.6540820070       25.6381489194       25.6403191051
 In         9.6720020850       25.6982839257       36.3335875511
 In         9.7044032035       36.3211279029       14.9899764867
 In         9.6660714389       36.3191963488       25.6969142953
 In         9.6503971909       36.3733502367       36.3838165778
 In        20.3663867605       14.9525155815       15.0449395342
 In        20.3649573386       15.0102090392       25.6913190423
 In        20.3272694944       15.0115003103       36.4175983570
 In        20.3709495300       25.6434000448       14.9538262438
 In        20.3528376125       25.6927967227       25.7011588522
 In        20.3905566148       25.6328507406       36.3732048108
 In        20.3189822650       36.4150504417       15.0166020478
 In        20.3943806307       36.3486683000       25.6333478339
 In        20.3453189351       36.3274101864       36.3465779969
 In        36.3024316909        9.6344324423       14.9790175534
 In        36.3317873099        9.6545983372       25.7033233344
 In        36.3876148463        9.6344168927       36.3873752697
 In        14.9876650146        9.7165860041       15.0001681118
 In        15.0040396673        9.6122106766       25.7217852655
 In        14.9984141933        9.7177149512       36.3195933068
 In        31.0685345672       15.0209418065       14.9514091234
 In        31.0650258927       14.9598171787       25.6625437279
 In        31.0372540856       14.9879068975       36.3518726568
 In        14.9562102388       20.3475553762       15.0464315554
 In        15.0075632925       20.3618467399       25.6884808641
 In         9.6579211332        9.6460631751        9.6568400771
 In         9.6643256429        9.6910609671       20.3517650296
 In         9.7158559250        9.7104063666       31.0480868603
 In         9.7209990719       20.3076222871        9.6710273066
 In         9.6485325108       20.3782604682       20.4197892339
 In         9.5909293769       20.3273118560       31.0191676050
 In        31.0666291429       25.6963381332       15.0318953993
 In         9.6429692667       31.0275615995        9.7416631269
 In         9.6046904966       30.9973289945       20.3067817137
 Ag        25.6889356107       31.0214947436       20.3852672031
 Ag        25.7360136775       31.0032510457       31.0291161366
 Ag        37.2232331943        8.8031772629        8.8038377088
 Ag        36.4996268661        9.4242148400       20.3291360552
 Ag        36.5854172630        9.4072473124       31.0407775849
 Ag        36.5552023328       20.3432720986        9.4536635418
 Ag        37.8459270717       21.1358471820       21.0789474888
 Ag        36.6040986213       20.3309423351       30.9589484281
 Ag        36.5366667781       31.0307403417        9.3820216218
 Ag        36.6195474897       30.9606888414       20.3422065690
 Ag        36.4811625929       30.9961295072       31.0121834397
 Ag         9.2919089285       30.9206859428       25.6242718956
 Ag         9.4365792144       31.0303810931       36.5937580515
 Ag        20.3655149446        9.5057966471       15.0941863042
 Ag        25.6889563081       20.3251906992       31.0345464906
 Ag        19.5315660918        8.2389312233       26.4607148331
 Ag        20.3282057661        9.4590631115       36.5505497579
 Ag        25.6819247630       20.3448096759       20.3346241012
 Ag        25.6808370727       20.3452721613        9.4541200420
 Ag        20.3108691658       20.3018533310       15.0177939586
 Ag        26.3244681440       30.1538503084        8.1633633996
 Ag        20.3446927989       20.3449763336       25.7060570348
 Ag        19.5406538095       19.5552216136       37.7783008928
 Ag        20.3429231320       31.0184244679       15.0391413842
 Ag        20.3557922484       31.0144768092       25.6888041060
 Ag        20.3914073112       30.9290740772       36.6759562561
 Ag        15.0553939851       15.0448644841       15.0352562315
 Ag        15.0105816066       15.0166532659       25.7111146079