    1296
 i =       94, E =    -27055.7495120571
 Cl        21.3485080662       32.0664367190       13.1178200042
 Cl        21.0058848540       32.0444345537       24.2272015161
 Cl        21.1495728423       32.4963672148       35.2955631285
 Cl        34.8844374308       21.3521455911       15.5300071386
 Cl        10.6227582408        7.0808667361       10.5837924155
 Cl        10.5209618673        7.0630412384       20.6497698374
 Cl        10.1748575304        7.0839199171       32.3636661951
 Cl        29.3300966194       21.2593851826       10.0357124217
 Cl        32.2953716543       10.2676732596       13.1736694007
 Cl        32.3008396018        9.3342272297       24.2710072710
 Cl        32.3221985142       10.1986388895       35.2269108601
 Cl        29.3295137939       21.2302894404       21.2151427364
 Cl        32.2207901603       21.3968525277       13.0843145784
 Cl        32.2684787256       21.1645041285       24.2516485582
 Cl        32.3707465023       21.6795729864       35.4552697878
 Cl        29.3708647504       21.2244985384       32.5475668328
 Cl        32.3745986464       32.3972712116       13.1259117248
 Cl        32.2357734047       32.2354325629       24.2066660613
 Cl        32.1585317928       32.3875782742       35.2821845124
 Cl        34.9513630213       21.1205505649       26.7154850800
 Cl        10.2821706183       18.1778834240       10.2899119947
 Cl         9.7784097426       18.2234335689       21.1344419662
 Cl        10.3204488347       18.2402564691       32.3223212796
 Cl        35.4747280054       21.6859431489       32.2196410685
 Cl        15.6972415179       34.8447792423       10.2640020396
 Cl        15.4188389835       34.8967503156       21.1038174790
 Cl        15.9335897726       34.8675527131       32.2965511239
 Cl        15.6087134152       29.2928809791       15.4721947581
 Cl        10.4516811208       29.2418499753       10.4743318876
 Cl         9.9684981040       29.3399508928       21.2654241479
 Cl        10.5829584617       29.2428171085       32.3134472451
 Cl        15.6478340164       29.3522877202       26.7891992692
 Cl        26.2990192309       12.5760300457       10.0568286895
 Cl        26.9431687276       12.7150914691       21.0776340406
 Cl        26.1945069248       12.5345286359       32.2652008422
 Cl        15.8182840740       29.2740122094       37.8069863332
 Cl        26.7581060933       23.7556378069       10.3743687427
 Cl        26.8253385738       23.8288447001       21.2661079043
 Cl        26.7650733425       23.7274120955       32.7934978788
 Cl        34.9500305205       21.1569898052       37.8426636716
 Cs         7.9633060824        7.9243557795       12.6294061725
 Cl        40.5116604091       27.1334435638       15.4045892925
 Cs         7.9499897084        7.8846366785       34.8822459101
 Cl        15.7538151244       40.3881497060       15.7177760213
 Cs         7.7561704342       18.3042374305       12.9685518323
 Cs         7.6082082438       18.8918962029       23.9261568178
 Cs         7.7460832233       18.4218577207       34.9724245239
 Cl        15.3952687726       40.5167251368       26.8743837443
 Cs         7.7241751467       29.5027373254       13.0368539153
 Cs         7.6209941327       29.1388946781       24.1014774569
 Cs         7.7753842840       29.6206580162       34.9835774327
 Cl        15.7049217219       40.4054773851       37.8554792065
 Cs         7.8924043369       40.0282561206       12.9980389376
 Cl        35.3032460899       21.4289888955       21.4302130866
 Cs         7.9765236642       40.0529003638       35.3485983638
 Cl        35.2503301327       32.3217352327       10.2016384632
 Cs        18.3510489968        7.7850184649       13.0037948326
 Cs        18.8543177577        7.6840427694       23.9019280611
 Cs        18.4524103066        7.7945627200       34.9449500636
 Cl        27.5380697682        6.9349360315       15.6911364012
 Cs        18.5119432919       18.4798004339       13.0004806107
 Cs        18.3808363657       18.3917158271       23.9511776281
 Cs        18.3550096455       18.4211432301       35.0826482527
 Cl        26.4372980332        7.0820042780       26.4495923783
 Cs        18.4016838062       29.5363509398       12.9098657075
 Cs        18.3308932006       29.6017322283       24.0860668799
 Cs        18.4619206686       29.4991111602       35.0168517521
 Cl        27.3309020480        7.0370980632       37.4319961526
 Cs        18.6671799471       40.2003775040       13.1317108229
 Cs        18.2043124001       40.3505856682       23.5474112302
 Cs        18.3583232384       40.2722405662       34.8751221098
 Cl        35.4746201020       32.2192663015       21.6860165471
 Cs        29.5275771485        7.7806839749       13.0527981302
 Cs        29.1262457851        7.6499306493       24.0819792770
 Cs        29.6164940392        7.7710512291       34.9536087777
 Cl        26.8343319496       18.2038665199       15.6619291512
 Cs        29.5491298724       18.4457002598       12.9303403684
 Cs        29.5840976109       18.4584398687       24.0541671833
 Cs        29.5034440542       18.4272911528       34.9966026249
 Cl        26.6634224357       18.2144535552       26.9671500742
 Cs        29.4683833209       29.4664204854       12.9789990810
 Cs        29.6770296892       29.5445445073       24.0091026078
 Cs        29.5726570454       29.4984337205       35.0599974669
 Cl        26.6668493983       18.1416809038       38.4058462613
 Cs        29.6874974357       40.2120080042       12.9712209079
 Cs        29.3755099382       40.3464606813       23.9328416940
 Cs        29.4074912753       40.2565340457       34.9147507313
 Cl        15.6498265345        7.6214797176       10.1738939317
 Cs        40.0169433125        7.9048360808       13.0657997989
 Cl        18.1425752330       32.5458857023       21.0468842201
 Cs        40.0350913776        7.9067202497       35.3284557795
 Cl        15.6088775235        7.5183877501       20.7016421244
 Cs        40.2052334104       18.6985233549       13.1992459466
 Cs        40.3572503778       18.3796395755       23.5853892580
 Cs        40.2383165499       18.3105871818       35.0005647979
 Cl        15.6975167895        7.6932713627       32.3010619145
 Cs        40.2279891770       29.6909915482       12.9797636805
 Cs        40.3874900206       29.2597874398       24.0371301769
 Cs        40.2319874788       29.4448761805       34.8988029870
 Cl        10.1376415442       21.6276620455       35.4584153989
 Cs        40.0608627326       40.0520681230       12.5936662362
 Cl        18.2414433728       32.2904509018       10.3807581824
 Cs        40.0487622388       40.0677670972       34.9416040475
 Cl        15.6775994679       18.7453208842       10.5780335795
 Cs         7.7803261613       13.0143822747       13.0143598865
 Cs         7.5464244297       12.5119190624       23.5981940585
 Cs         7.8294908834       12.9989743954       34.9678611783
 Cl        15.8364807947       18.6474576103       21.1991090163
 Cs         7.5463274651       23.5988636432       12.5114085910
 Cs         7.8320803370       24.0112709269       24.0114391418
 Cs         7.5736664789       24.2353500469       35.5305982862
 Cl        15.4335109083       18.7222821489       32.1428413738
 Cs         7.8295477836       34.9678740370       12.9990341338
 Cs         7.5738251571       35.5303347172       24.2351120622
 Cs         7.7889353873       34.9532559985       34.9532378958
 Cl        34.8739447836       32.3784757641       15.7249095273
 Cl        10.3321943834       40.2943419136       10.2697676153
 Cl        10.1059522365       40.5070973537       20.7202462277
 Cl        10.2002026141       40.3825352834       32.3557932051
 Cl        15.6837029490       29.7372868675       10.3727337841
 Cs        18.3737087327       12.9268174001       12.9267966941
 Cs        18.4665773012       12.9881654674       24.1174689390
 Cs        18.3487501612       13.0103105703       34.9164109007
 Cl        15.8146659282       29.8033458289       21.4262880822
 Cs        18.4663041116       24.1174948844       12.9879206029
 Cs        18.5045395127       24.0367895599       24.0411669461
 Cs        18.4613025900       23.9454519763       35.0578858724
 Cl        15.3874938116       29.7713139975       32.3243718977
 Cs        18.3485103196       34.9163618847       13.0099866456
 Cs        18.4617931781       35.0565842683       23.9442684113
 Cs        18.4668436476       35.0350265745       35.0346547051
 Cl        34.9450932893       32.3301552718       26.6398760405
 Cl        20.6555248109        7.0720420202       10.5501370335
 Cl        21.5354785842        7.1060326542       21.5541710072
 Cl        20.4969608188        6.9832551188       32.3611935572
 Cl        15.5298122107       40.8941449568       10.0486391619
 Cs        29.5733362951       13.0465198268       13.0464679073
 Cs        29.4704936045       13.0057348325       23.8694859393
 Cs        29.6289746267       12.9492332286       35.0676384526
 Cl        15.9408314921       40.9432198265       20.8646522060
 Cs        29.4698874160       23.8705178252       13.0068358079
 Cs        29.6027431482       24.0021504091       24.0016523550
 Cs        29.6012053328       24.0262193853       35.0863889312
 Cl        15.7384039719       40.9587906493       32.5759652058
 Cs        29.6290673586       35.0677100054       12.9492810941
 Cs        29.6010332152       35.0865506146       24.0262951265
 Cs        29.4732375877       34.9728198452       34.9724148388
 Cl        34.8230118334       32.3122741201       37.6892278878
 Cl        21.1598616174       18.2297329433        9.9231194550
 Cl        21.1307493461       18.2429868218       21.4375605823
 Cl        21.0763351450       18.1976886718       32.6750736560
 Cl        27.2129315337        7.5301356081       10.1958689019
 Cs        40.1891943526       13.0186641717       13.0184838037
 Cs        40.3992383103       12.5429838096       24.4985603691
 Cs        40.2196240899       12.9959777098       34.9663730670
 Cl        26.6038891762        7.6104003932       21.3727677653
 Cs        40.3992477711       24.4986701664       12.5429996771
 Cs        40.3528406517       24.0823055922       24.0823686110
 Cs        40.4391993285       23.5702349728       35.4577341184
 Cl        27.2744232556        7.5201942403       32.3230794653
 Cs        40.2196835307       34.9663667946       12.9959780168
 Cs        40.4391438767       35.4576402074       23.5701893243
 Cs        40.1540088752       34.9524482968       34.9524327572
 Cl        10.3321181157       10.2697599186       40.2943247270
 Cl        21.2636539218       29.3230076659        9.9910812613
 Cl        20.9018747546       29.2851083372       20.7215877771
 Cl        21.3956695246       29.2829024097       32.7150261362
 Cl        26.7436275475       18.6657175493       10.0654410947
 Cs         7.9632912836       12.6293468229        7.9243371997
 Cs         7.7561851710       12.9686200792       18.3039740297
 Cs         7.7241239546       13.0369825093       29.5024106199
 Cs         7.8923801176       12.9980744412       40.0282856129
 Cl        40.3846676586       26.7144375188       26.7141801080
 Cs         7.6083490245       23.9261123807       18.8924126897
 Cs         7.6204358949       24.1013638942       29.1391263548
 Cl        32.1940690130       34.8221409317       37.8917015793
 Cs         7.9499724881       34.8823136717        7.8846500640
 Cs         7.7464019565       34.9723127067       18.4220036896
 Cs         7.7753525396       34.9832332543       29.6205614875
 Cs         7.9765531347       35.3486776468       40.0529442243
 Cl        20.7608741835       40.4965214030       10.1392245684
 Cl        20.9588189421       40.4320911331       20.8838751017
 Cl        21.2829881949       40.3897777878       32.2084951967
 Cl        26.7568117433       18.7153361217       21.2614854290
 Cs        18.3510884778       13.0037378803        7.7850083145
 Cs        18.5128170273       13.0003254377       18.4800374581
 Cs        18.4020063646       12.9105361647       29.5366306493
 Cs        18.6672174987       13.1319836810       40.2002656296
 Cs        18.8543033724       23.9019479247        7.6838189414
 Cs        18.3803162489       23.9503738587       18.3919528939
 Cs        18.3281421805       24.0886610713       29.6049661606
 Cs        18.2040952123       23.5476970408       40.3507205022
 Cs        18.4523346181       34.9450089295        7.7943775560
 Cs        18.3555116536       35.0829794759       18.4206133136
 Cs        18.4626599355       35.0162079095       29.4984209135
 Cs        18.3581799238       34.8754817186       40.2723235660
 Cl        32.3874008528        7.1254586369       10.1794800692
 Cl        32.3745907150        6.9585934945       20.4846520626
 Cl        32.2458577374        7.1141539507       32.2333133761
 Cl        26.8638305688       18.6642767760       32.0212092539
 Cs        29.5273898450       13.0529921201        7.7808492337
 Cs        29.5490893242       12.9298177220       18.4454378062
 Cs        29.4688760094       12.9789899057       29.4662504660
 Cs        29.6875109155       12.9711800032       40.2119352232
 Cs        29.1262715021       24.0818384617        7.6502435148
 Cs        29.5838355211       24.0551582439       18.4604435481
 Cs        29.6761013437       24.0089934466       29.5442640271
 Cs        29.3755131075       23.9325903657       40.3463044851
 Cs        29.6165736779       34.9535815154        7.7711382250
 Cs        29.5031290338       34.9970481329       18.4274296558
 Cs        29.5729258489       35.0596544366       29.4984208878
 Cs        29.4072273315       34.9146917342       40.2566358436
 Cl        32.3108791695       18.2748387456       10.3838545124
 Cl        32.4565260356       18.2018429976       21.1359845467
 Cl        32.2708254818       18.2227233731       32.2423563425
 Cl        40.4020918097       37.8422145923       15.5750511879
 Cs        40.0169619264       13.0657350154        7.9048400527
 Cs        40.2053755278       13.1989456620       18.6983514096
 Cs        40.2279977693       12.9798230535       29.6909295320
 Cs        40.0608248944       12.5936401389       40.0520389112
 Cl        40.5037284315       27.2369081053       37.8383047578
 Cs        40.3570492725       23.5852936840       18.3797330758
 Cs        40.3876489703       24.0371274165       29.2598329224
 Cl        18.1816214199       32.0365831006       32.0356325643
 Cs        40.0351336180       35.3284754755        7.9067452474
 Cs        40.2383184183       35.0005948891       18.3105659450
 Cs        40.2318873351       34.8987141336       29.4449025458
 Cs        40.0487637117       34.9413102825       40.0678730024
 Cl        32.3181615536       29.2345853136       10.5970581395
 Cl        32.4527662592       29.3632419706       21.2505519307
 Cl        32.4410717026       29.2854535695       32.4385837073
 Cl        26.7778908534       29.7551543964       10.0564395088
 Cl        10.3935738855       21.2257295325       24.2459387012
 Cs         7.8928410253        7.8823042351       18.6484195382
 Cs         7.9394160726        7.9059769727       29.7846533498
 Cl        37.6144476304       10.3570763099        7.6903069516
 Cs         7.8927403387       18.6483966459        7.8822391303
 Cs         7.6985424292       18.1736800075       18.1735919818
 Cs         7.5993906708       18.3313250136       29.7257601263
 Cs         7.8764388655       18.1099166918       40.0479343178
 Cs         7.9392320515       29.7847168891        7.9059903172
 Cs         7.5997392658       29.7258225738       18.3314409069
 Cs         7.8112523931       29.7710150434       29.7712322671
 Cs         7.8671920897       29.3218246903       40.0852392563
 Cl        37.3987658913       10.5464023511       40.8948276807
 Cs         7.8765389210       40.0478506223       18.1099045317
 Cs         7.8670692003       40.0849401711       29.3217532105
 Cl        29.2369577991       10.5007100531       10.5007342886
 Cs        18.6779087278        7.9028116730        7.9028536817
 Cs        18.2312644094        7.7932922885       18.2302105019
 Cs        18.3294865416        7.6699471214       29.6849736640
 Cs        18.1727708018        7.9036544432       40.0320933285
 Cs        18.2311992936       18.2302014348        7.7932529859
 Cs        18.4061832852       18.4530001996       18.4521565448
 Cs        18.2776946547       18.3632051912       29.5907099124
 Cs        18.3622587983       18.3752294594       40.2245755602
 Cs        18.3294970682       29.6850844431        7.6695524240
 Cs        18.2772904179       29.5920940441       18.3605024990
 Cs        18.3498667914       29.4610336495       29.4606959185
 Cs        18.6012191618       29.4547541763       40.3044865716
 Cs        18.1728148139       40.0320588176        7.9034552042
 Cs        18.3623385523       40.2246673754       18.3750889294
 Cs        18.6008867147       40.3043882912       29.4546863249
 Cs        18.6676526715       40.1372254449       40.1369195612
 Cs        29.8130248905        7.9446240279        7.9445480509
 Cs        29.7002098124        7.6654139406       18.3332985344
 Cs        29.7479191701        7.8042942171       29.7385515767
 Cs        29.3491902604        7.8575855301       40.0475925540
 Cs        29.7001517178       18.3335329509        7.6657575681
 Cs        29.5034443473       18.4826628439       18.4832320664
 Cs        29.6161238751       18.4567059109       29.5532411985
 Cs        29.7677464361       18.2478687967       40.2785071018
 Cs        29.7478740871       29.7385090246        7.8044260131
 Cs        29.6153819273       29.5532111397       18.4572820073
 Cs        29.5326132703       29.5126966297       29.5123806097
 Cs        29.7328107749       29.4270196827       40.2904966003
 Cs        29.3491932530       40.0475425460        7.8576234438
 Cs        29.7680212064       40.2786589617       18.2479548030
 Cs        29.7327675070       40.2904194892       29.4275041089
 Cs        29.7413960713       40.1184244776       40.1183682199
 Cl        37.6992484834       10.2813640426       29.8054813487
 Cs        40.0696606931        7.9589934076       18.1694101378
 Cs        40.0792321957        7.8610392623       29.3364753521
 Cl        37.5619608746       10.5557231582       18.7548134838
 Cs        40.0696115565       18.1694031413        7.9591313577
 Cs        40.1906303090       18.4344720552       18.4345785583
 Cs        40.2859926437       18.2314376403       29.7602885697
 Cs        40.1411797232       18.6081925454       40.1030498100
 Cs        40.0792130454       29.3364575124        7.8609605185
 Cs        40.2858874191       29.7602966521       18.2314702328
 Cs        40.3235011799       29.6179059364       29.6179594059
 Cs        40.0587615870       29.8395671292       40.0733530329
 Cl        29.3302581816       10.0359878700       21.2593025391
 Cs        40.1412256405       40.1030198226       18.6082226889
 Cs        40.0587111326       40.0733187473       29.8397486019
 Cl        29.2440192849       10.5753887127       32.3034523915
 Cs        12.6863869745        7.9425067360        7.9425537953
 Cs        12.9935064918        7.7781470982       18.3559751520
 Cs        13.0381300518        7.7700191514       29.5148087104
 Cs        13.0705066044        7.8449444304       40.0009660283
 Cs        12.9933920015       18.3557808236        7.7780576031
 Cs        12.9457024099       18.4540291983       18.4542173109
 Cs        12.8119351505       18.4052142787       29.5263617875
 Cs        13.0875536477       18.6176846597       40.2134638997
 Cs        13.0380346810       29.5148341208        7.7696911460
 Cs        12.8130677341       29.5260532017       18.4045092427
 Cs        12.9285767694       29.4477323555       29.4479381600
 Cs        12.9987856641       29.6036660233       40.2228887139
 Cs        13.0705769332       40.0010171749        7.8449604720
 Cs        13.0876935803       40.2134223699       18.6177777637
 Cs        12.9987845459       40.2225653848       29.6036289627
 Cs        12.6619053615       40.0626765013       40.0625529284
 Cl        32.2469628130       34.8708902940       15.7476860413
 Cs        23.9048010740        7.6669881035       18.8580926146
 Cs        24.0877271452        7.6733692972       29.1282212006
 Cl        35.4530021448       21.6706153764       10.1705612882
 Cs        23.9049450388       18.8582206505        7.6672617627
 Cs        23.9639381518       18.4514818873       18.4502917145
 Cs        24.0062651890       18.4513248668       29.5859920216
 Cs        23.5387660320       18.2812379151       40.3453081659
 Cs        24.0878177499       29.1281929396        7.6731511329
 Cs        24.0066630138       29.5874675452       18.4500174857
 Cs        24.0384504069       29.5625148924       29.5630992901
 Cs        23.8541073230       29.5124675667       40.2736689632
 Cl        32.4204019262       34.9393325174       26.6367636029
 Cs        23.5388331519       40.3454984035       18.2810580974
 Cs        23.8538852743       40.2737622663       29.5122510941
 Cs        23.7848653153       40.1417223713       40.1417841450
 Cs        34.8939366326        7.9581113547        7.9581526553
 Cs        34.9769790205        7.8005493697       18.4578512240
 Cs        34.9881126814        7.7720909675       29.6324653132
 Cs        35.3267902591        7.9117627981       40.0234670369
 Cs        34.9767089515       18.4582463576        7.8009134451
 Cs        35.0239660247       18.4426518100       18.4436962495
 Cs        35.0575426539       18.4951478578       29.4689124029
 Cs        35.0220315107       18.3295300907       40.2397193563
 Cs        34.9880669742       29.6323753660        7.7720971612
 Cs        35.0565751048       29.4693728359       18.4949043930
 Cs        35.0844698613       29.5238712002       29.5241804904
 Cs        34.9679118853       29.4316162899       40.2015939133
 Cs        35.3268153274       40.0234627467        7.9117980470
 Cs        35.0221092753       40.2397250856       18.3295599492
 Cs        34.9679132809       40.2016037924       29.4318451112
 Cs        34.8667369631       40.0550514431       40.0553806420
 Cl        26.7238464355       34.8725045209       10.1600170901
 Cl        26.6647101650       34.9417196546       20.8273150658
 Cl        26.8371218357       34.8869631845       32.3114392138
 Cl        26.9574070508       29.8961099737       21.6101165616
 Cl        32.3721005836       40.3460647934       10.1571296437
 Cl        32.3942488659       40.4923583106       20.7410831938
 Cl        32.3623934277       40.3822546978       32.1990246054
 Cl        26.6208789702       29.7664485412       32.3135011146
 Cl        37.6573941942       12.8082486275       10.3512378526
 Cl        38.0562627833       12.6212390339       21.6863027213
 Cl        37.7655660969       12.7273103552       32.3319130383
 Cl        40.5037342199       37.8384027098       27.2370068809
 Cl        38.3798350065       23.7618341618        9.6865374686
 Cl        38.0011507783       23.7479280357       21.1769601719
 Cl        38.5142402150       23.7102689246       32.3654112730
 Cl        27.3839005296       40.8969839234       10.5154123293
 Cs        13.0569312500       13.0369257068        7.7758898987
 Cs        12.9001939781       12.9207046571       18.3657587866
 Cs        12.9845672897       13.0158122681       29.5451251861
 Cs        13.0121413911       12.9412223432       40.1788558732
 Cs        12.4461196953       23.6741539492        7.5937789957
 Cs        12.9387668521       24.1536472253       18.4973974463
 Cs        12.9335524205       23.9019942634       29.4587441557
 Cs        12.5311472057       24.4289786188       40.3639202776
 Cs        13.0502547852       34.9342908118        7.8309655110
 Cs        12.9601812477       34.9320031452       18.3627388536
 Cs        12.9466741616       35.0987536082       29.6028046876
 Cs        13.0691189200       34.9452416529       40.2358705661
 Cl        15.6278999947       32.3451041351       12.7875827681
 Cl        15.8397867363       32.5078615997       23.7962175737
 Cl        15.9342999807       32.2967230509       34.8674833344
 Cl        26.7923141177       41.0311684018       21.8167398932
 Cs        23.6442909064       12.5082612989        7.5913479840
 Cs        24.1370001193       13.0044742043       18.4972799601
 Cs        23.9070416801       12.9891311135       29.4572731428
 Cs        24.4967160662       12.5330427008       40.3646979310
 Cs        23.9920595330       23.9871486910        7.8639197213
 Cs        24.0604376355       23.9415704554       18.4692408715
 Cs        24.0313994931       24.0579838184       29.6212194953
 Cs        24.2300037604       23.9761113524       40.3326994253
 Cs        24.2535454190       35.5049296529        7.6023713434
 Cs        23.8905599284       35.0255173897       18.5175140671
 Cs        24.0797275852       35.0912615931       29.5381909332
 Cs        24.0477684984       34.9250222821       40.2584415905
 Cl        40.9166754073       15.5296915446       10.0882103055
 Cl        40.9307752803       16.0354503759       20.8962905808
 Cl        40.9153574458       15.7037089636       32.2663299104
 Cl        26.7020047766       40.9960857230       32.8039340050
 Cs        34.9573174618       13.0633599951        7.8749283976
 Cs        34.9432034581       13.0233794485       18.4279815827
 Cs        35.0981757846       12.9464287178       29.6511489523
 Cs        34.9728639252       12.9933694907       40.2061381594
 Cs        35.5288443055       24.2803343751        7.5995395128
 Cs        34.9995794566       23.9509454252       18.5498803183
 Cs        35.0765803390       24.0676840273       29.4857478988
 Cs        35.5689326407       23.6116138759       40.4112339649
 Cs        34.9432655764       34.9330191291        7.7561175411
 Cs        35.0850998301       35.0853595923       18.4088120660
 Cs        35.0072189353       34.9506414485       29.5206674371
 Cs        35.0224648903       34.8735044013       40.1439664707
 Cl        26.2989256008       10.0567312732       12.5759798130
 Cl        26.7582175187       10.3737797004       23.7555516958
 Cl        26.7240301749       10.1598325493       34.8725546697
 Cl        40.2949243781       37.6712649955       37.6714725803
 Cl        37.6697620227       34.8851398574       10.3000846165
 Cl        37.7793822125       34.9044407926       21.2129850943
 Cl        37.7783521394       34.8355054902       32.2757759462
 Cl        37.6144482801        7.6902818067       10.3571263418
 Cl        26.9439079332       21.0776194854       12.7155453063
 Cl        26.8389528670       21.2660575130       23.8287516601
 Cl        26.6662162424       20.8263990922       34.9415143588
 Cl        37.7991323747        7.5801090075       20.8020012721
 Cl        10.1746818524       32.3636621129        7.0838324821
 Cl        10.1673297460        7.6070726425       15.6151469845
 Cl        10.1988968151        7.5365550959       27.1594330024
 Cl        10.3531970444        7.6244103314       37.6058515334
 Cl        10.3208371593       32.3220925854       18.2401962119
 Cl        10.4664339024       18.7168120989       15.6592682322
 Cl        10.0164096560       18.6693298850       26.7552039990
 Cl        10.4754599910       18.6963800868       37.5534555464
 Cs        13.0012385396       12.9952457036       12.9952995428
 Cs        12.8601951888       12.9614322517       24.0553641362
 Cs        12.9889241754       12.9864650535       34.9624911138
 Cl        37.8263573143        7.5983091541       32.3637099858
 Cs        12.8602885554       24.0553321953       12.9605295622
 Cs        12.9781172383       24.0185103272       24.0193691164
 Cs        12.9801076399       23.9277782200       35.1158179818
 Cl        29.2440536610       32.3036411921       10.5753027791
 Cs        12.9889213997       34.9624751746       12.9863942212
 Cs        12.9805292603       35.1157653726       23.9277729389
 Cs        13.0342842424       35.0550575194       35.0549583645
 Cl        37.5620145008       18.7547838051       10.5558723539
 Cl        10.5830355844       32.3131041306       29.2429218431
 Cl        37.5907871520       29.3089611035       15.7625753690
 Cl        37.8714780043       29.3451462388       26.7620835588
 Cl        37.5247963986       29.2490365035       37.5396951904
 Cs        24.0514737498       12.9442135331       12.9441946844
 Cs        24.0120420884       12.9994175284       23.9674556082
 Cs        23.9566847683       13.0025253851       35.1100384735
 Cl        37.5739556360       18.6611603228       21.2148579533
 Cs        24.0114991695       23.9680222395       13.0003740844
 Cs        24.2726524663       24.0373305480       24.0443885974
 Cs        24.0238450001       24.0281955146       35.1411150645
 Cl        37.5004271361       18.7006326897       32.3200490461
 Cs        23.9565394920       35.1097244864       13.0026565102
 Cs        24.0239602365       35.1414892395       24.0275291319
 Cs        23.9850429545       34.9982014980       34.9980252157
 Cl        29.3710146896       32.5499066931       21.2239762808
 Cl        10.2002672293       32.3558314668       40.3826213236
 Cl        37.8519182604       40.3956354831       15.5830808317
 Cl        37.8430043949       40.4861154557       27.1861404228
 Cl        37.6032157645       40.3155191093       37.6486925012
 Cs        34.9685675360       13.0326462373       13.0326368936
 Cs        35.1301435143       12.9803167601       23.9859691244
 Cs        35.0032811536       12.9904896164       35.0012910479
 Cl        37.6992920313       29.8055008990       10.2813190810