    1296
 i =       53, E =    -29101.4863559840
 Cs        33.6945665993        7.2071839456       12.3399624095
 Cs        33.5822006138        7.1844446835       23.0544265760
 Cs        33.6521853423        7.2159587935       33.6603304558
 Cs        33.6445499162       17.6710717645       12.3823557592
 Cs        33.7170113051       17.6789501654       23.0480649782
 Cs        33.6559850757       17.6746971040       33.6723856179
 Cs        33.6448760585       28.3570841099       12.3347829242
 Cs        33.7132576936       28.3597426094       23.0110582349
 Cs        33.6447019939       28.3514681464       33.7085783000
 Cs        33.6584695573       38.7858258003       12.3720413278
 Cs        33.5949943143       38.8338503611       22.9948354075
 Cs        33.6954281116       38.7941241779       33.7091140680
 Cs        12.3667727107       12.3596949017       12.3493185043
 Cs        12.3504293600       12.3489660479       23.0505185537
 Cs        12.3747226200       12.3735773965       33.6611567918
 Cs        12.3607467932       22.9887172549       12.3631245747
 Cs        12.3229617636       23.0030552794       23.0254788240
 Cs        12.3498383148       22.9852547538       33.6801070082
 Cs        12.3734641611       33.6505407419       12.4168037792
 Cs        12.3523695887       33.6710981467       23.0028897848
 Cs        12.3550298086       33.6625098291       33.6664838327
 Cs        22.9833614603       12.3525576912       12.3599381649
 Cs        22.9995221452       12.3162901794       23.0278922336
 Cs        22.9845296164       12.3466387422       33.6846241017
 Cs        23.0143613503       23.0186040960       12.3119900178
 Cs        23.0207071890       23.0182581961       23.0299520927
 Cs        23.0065339962       23.0088685718       33.7320351027
 Cs        23.0297045951       33.6656560013       12.3605710663
 Cs        23.0180410973       33.7194321107       23.0264048918
 Cs        23.0320991421       33.6731672361       33.6816822400
 Cs        33.6262530272       12.3400522051       12.4120816241
 Cs        33.6543379572       12.3434401811       23.0220066059
 Cs        33.6611481620       12.3452956760       33.6697983334
 Cs        33.6497544316       23.0454528319       12.3559604993
 Cs        33.8250370132       23.0250573110       23.0308108590
 Cs        33.6557281591       23.0162264424       33.6978397801
 Cs        33.6573666297       33.6571422050       12.3363248782
 Cs        33.6544826097       33.6812814886       23.0309349569
 Cs        33.6214372850       33.6625342976       33.6773804732
 Cs        12.3714454588        7.2815697721        7.3496639089
 Cs        12.4325844304        7.1703795438       17.7088987571
 Cs        12.5695938408        7.1459267156       28.4500118601
 Cs        12.0167789753        7.3550985848       38.6949695030
 Cs        12.6010970162       17.7493801560        7.1089745890
 Cs        12.3340733909       17.6742801589       17.6823717887
 Cs        12.2257557965       17.6455247355       28.3867976566
 Cs        12.5772586920       17.5844858308       38.8925696950
 Cs        12.4186806090       28.3696188657        7.2433318774
 Cs        12.2297458865       28.3606337442       17.6814862447
 Cs        12.3250951915       28.3369811405       28.3497360606
 Cs        12.4233127546       28.3365363242       38.8465690043
 Cs        12.0348672755       38.6423762457        7.3335599682
 Cs        12.5717797839       38.8745058971       17.6080718372
 Cs        12.4264834887       38.8425100217       28.3412355664
 Cs        12.3767745119       38.7083117905       38.7059584356
 Cs         7.3258450446        7.3108588345       17.4402098854
 Cs         7.3468093461        7.3403652180       28.2140006706
 Cs         7.3618583070       17.4084119188        7.3115004998
 Cs         7.1676223563       17.6953439468       17.7068851949
 Cs         7.3553788290       17.8317636477       38.6876492200
 Cs         7.3010880981       28.2031462972        7.3940942041
 Cs         7.1533397212       28.3110537554       28.3283827078
 Cs         7.3228686699       28.6072665315       38.7032032015
 Cs         7.3537524080       38.6789461192       17.8250848067
 Cs         7.3266167125       38.7011603932       28.6058096274
 Cs        23.1839188861        7.2820109600        7.3605105839
 Cs        23.1973250820        7.1286686717       17.8213536089
 Cs        22.7733828134        7.1123601780       28.2183943016
 Cs        22.8643822131        7.2886805201       38.7200324194
 Cs        22.9392204363       17.7023859677        7.1327799835
 Cs        23.0112643597       17.6445816023       17.6582857848
 Cs        22.9940200422       17.6459353607       28.3958310327
 Cs        22.7777871248       17.8098504584       38.9289669492
 Cs        17.4190852184        7.3376176129        7.3225575788
 Cs        17.6917578028        7.1611929373       17.7163703666
 Cs        17.8354178464        7.3512392178       38.6868406024
 Cs        22.9799205159       38.8298139098       33.5953378178
 Cs        17.6545047407       17.6524647746       17.6404770314
 Cs        17.6247779980       17.6238756355       28.4127271183
 Cs        23.0665873321       38.8244559200       12.4628645596
 Cs        17.7271500522       28.2949007101        7.1912658585
 Cs        17.6386935551       28.3910505135       17.6697245536
 Cs        17.6565545022       28.3668593861       28.3811431978
 Cs        17.6881040058       28.3160363857       38.8767867283
 Cs        17.8237801622       38.7264010089        7.3942558705
 Cs        17.6956452379       38.8733482654       28.3296707497
 Cs        17.4190153816       38.6992766534       38.7003255377
 Cs        23.0705401169       28.3189519302        7.1321565586
 Cs        23.0124836936       28.3864722288       17.6567220954
 Cs        23.0267190613       28.3803232793       28.3937646084
 Cs        23.2193385414       28.2143495518       38.9271131971
 Cs        22.8567517954       38.7189856406        7.3357940340
 Cs        22.8024174501       38.8988482093       17.8231037135
 Cs        23.2260440885       38.9172664628       28.2235699581
 Cs        28.2244615191        7.3003295283        7.3716352258
 Cs        28.2952819670        7.1420191414       28.3458118076
 Cs        28.6093378062        7.3113802448       38.6979917984
 Cs        28.2824469410       17.7256599800        7.1937318876
 Cs        28.3661965268       17.6427294916       17.6776691387
 Cs        28.3674588082       17.6564539870       28.3853461108
 Cs        28.3090896625       17.6763822783       38.8858128831
 Cs        28.3729809407       28.3725665548       17.6386518734
 Cs        28.3741943447       28.3949128381       28.4079762608
 Cs        23.1722547257       38.7157623354       38.7178910686
 Cs        28.6139108596       38.6651508363        7.3163133895
 Cs        28.3183253708       38.8677664747       17.6825779764
 Cs        28.2059234428       38.6775668191       38.6915080018
 Cs        38.6661447128        7.3016361526       17.8317499883
 Cs        38.7077030893        7.3210636864       28.5991856291
 Cs        38.7038534209       17.8067776789        7.3564979846
 Cs        38.8250703191       17.6222343592       17.6432774457
 Cs        38.8474203537       17.6911810350       28.3541331680
 Cs        38.7110631595       17.4120313962       38.6932438014
 Cs        34.0385576834        7.3769039143        7.3493150669
 Cs        33.4161701710        7.1137066920       17.6152349093
 Cs        38.6867819796       28.5964883106        7.3258447551
 Cs        38.8455300764       28.3458417836       17.6930434911
 Cs        38.8274342395       28.4138358706       28.4281169414
 Cs        38.6429600956       28.1900233349       38.7432267615
 Cs        33.5951812627        7.1689091820       28.3444245429
 Cs        33.6536354232        7.2998314514       38.7066470164
 Cs        38.7110102079       38.6906302235       17.4477938978
 Cs        38.6544793909       38.7244357076       28.2130418229
 Cs        33.5701566489       17.6239845563        7.2322710146
 Cs        33.6773782928       17.6708037840       17.6965187176
 Cs        33.7027179807       17.6875814394       28.3502512627
 Cs        33.6007151981       17.6712728080       38.8499833560
 Cs        33.4499613471       28.2890496974        7.1041651508
 Cs        33.7009167952       28.3434094286       17.6828682793
 Cs        33.6766875404       28.3682197735       28.3817425841
 Cs        33.4019915958       28.4450021547       38.9192922211
 Cs        33.6687287994       38.7394117806        7.3466915718
 Cs        33.5994930369       38.8400488850       17.6909192741
 Cs        33.4141422660       38.9015159989       28.4545634072
 Cs        34.0495877169       38.6652753222       38.6788890834
 Cs         7.3174443421        7.3003185291       12.4015077370
 Cs         7.3104307235        7.3003229051       23.1827887969
 Cs         7.3496813402        7.3464294843       34.0429785266
 Cs         7.2045435902       17.6684121293       12.4188842277
 Cs         7.1304936331       17.7930087540       23.2325507513
 Cs         7.1491611339       17.5926672452       33.4628167733
 Cs         7.1423128494       28.4137250745       12.6224428348
 Cs         7.1254330384       28.1991709179       22.8019243492
 Cs         7.1752280159       28.3372482628       33.5999278699
 Cs         7.3688002546       38.6639889645       11.9862046055
 Cs         7.3050035834       38.7098119026       22.8571876963
 Cs         7.3187740118       38.7118640554       33.6482555465
 Cs        17.6726075142        7.1951897072       12.4282895457
 Cs        17.7867125184        7.1268083166       23.2311644669
 Cs        17.5897582836        7.1447901459       33.4606006450
 Cs        17.6852882450       17.6784587777       12.2052614622
 Cs        17.6451810359       17.6438223398       23.0352028135
 Cs        17.6473415483       17.6483077214       33.8200082638
 Cs        17.6658585618       28.3598223459       12.3554465108
 Cs        17.6518996060       28.3805473014       23.0168969539
 Cs        17.6825642265       28.3347961020       33.7081181675
 Cs        17.6059114001       38.8887412716       12.6208619838
 Cs        17.8123496498       38.9096520088       22.8054624816
 Cs        17.6821991069       38.8431197062       33.5980849611
 Cs        28.3813867079        7.1195956338       12.5965013127
 Cs        28.1868608279        7.1118250669       22.8067927411
 Cs        28.3366235590        7.1678947058       33.6016661751
 Cs        28.3400379292       17.6639076860       12.3510232943
 Cs        28.3765826082       17.6525244537       23.0242024629
 Cs        28.3338951731       17.6774253766       33.7164150071
 Cs        28.3426419371       28.3424041167       12.1972961812
 Cs        28.3811417098       28.3848554289       23.0327442898
 Cs        28.3494614718       28.3703001191       33.8275327696
 Cs        28.3530038870       38.8191538911       12.4104966688
 Cs        28.2134442435       38.9144695698       23.2316148797
 Cs        28.4164615894       38.8774562434       33.4799374479
 Cs        38.7010832578        7.3709630795       12.0094828919
 Cs        38.7409843708        7.3437964663       22.8492665369
 Cs        38.7081027382        7.3065075380       33.6408912628
 Cs        38.8114884433       17.6671678629       12.4472651811
 Cs        38.9205521374       17.8927634417       22.9096605571
 Cs        38.8434946514       17.6703095586       33.5998374392
 Cs        38.8256585383       28.3481990046       12.4180417561
 Cs        38.9128753928       28.1542861536       23.1504088689
 Cs        38.7970548339       28.3540233778       33.6539676969
 Cs        38.7240687745       38.7059766376       12.4139808710
 Cs        38.7525993106       38.6668209347       23.1884091997
 Cs        38.7122620840       38.6522929672       34.0193890414
 Cs         7.2357481614       12.3578001891       12.3782432190
 Cs         7.2026093569       12.4286019504       23.0090167312
 Cs         7.2337870174       12.3355563461       33.7020033050
 Cs         7.2037849611       22.9511701982       12.4642847381
 Cs         7.1900877525       23.0029406016       23.0200502698
 Cs         7.1974456554       23.0286245855       33.5939906885
 Cs         7.2389361984       33.6886544983       12.3492000183
 Cs         7.1989224005       33.5828787165       23.0403099200
 Cs         7.2254931270       33.6576597558       33.6595705758
 Cs        17.6648831136       12.3718253900       12.3414825847
 Cs        17.6436684925       12.3122372744       23.0322956606
 Cs        17.6752128331       12.3459505564       33.6904077858
 Cs        17.6794987597       22.9909785036       12.3225164953
 Cs        12.3568332119       12.3509992433        7.2455037404
 Cs        12.3597309312       12.3571446836       17.6931728080
 Cs        12.3455622239       12.3447902066       28.3712361065
 Cs        12.3420179723       12.3408844364       38.7961805207
 Cs        17.6409336337       23.0087327894       23.0284804625
 Cs        12.3456304994       23.0605731765        7.2045916281
 Cs        12.3271110798       23.0000278337       17.6619392312
 Cs        12.3134612958       22.9980159267       28.3841659966
 Cs        12.4204462244       23.0309495563       38.8369564580
 Cs        17.6457777695       23.0028327604       33.7327366052
 Cs        12.4207012688       33.6022831050        7.2401026599
 Cs        12.3510096292       33.6748202585       17.6991215277
 Cs        12.3588697180       33.6578256110       28.3423010995
 Cs        12.3638427567       33.6564040616       38.7967834827
 Cs        17.6816429772       33.6723851524       12.3893669725
 Cs        17.6538725632       33.7201877343       23.0244800869
 Cs        17.6845583770       33.6580297367       33.6661369524
 Cs        23.0630625834       12.3246765578        7.1973792735
 Cs        22.9976467616       12.3170266730       17.6640433871
 Cs        22.9972509728       12.3101050462       28.3872660639
 Cs        23.0269044080       12.4136777682       38.8411537693
 Cs        22.9894858506       23.0392904986        7.2072959225
 Cs        23.0167602079       23.0189281446       17.6545931316
 Cs        23.0130526033       23.0125275614       28.4105385708
 Cs        23.0046587870       23.0101900602       38.8639236729
 Cs        22.9520615337       33.6849602123        7.1951007966
 Cs        23.0242785454       33.7091356745       17.6605221111
 Cs        23.0188449296       33.7221142841       28.3847490283
 Cs        22.9790628694       33.5917757042       38.8398324006
 Cs        28.3244691577       12.3365169465       12.3831707942
 Cs        28.3573088555       12.3057341097       23.0294422349
 Cs        28.3322211307       12.3528688557       33.6686642186
 Cs        28.3436605854       23.0392022361       12.3153392071
 Cs        28.4047252697       23.0232748400       23.0312399795
 Cs        28.3631697982       23.0112288440       33.7375681444
 Cs        33.6170625753       12.3923000900        7.2462615225
 Cs        33.6445961575       12.3314381045       17.6968012338
 Cs        33.6549928974       12.3537568016       28.3501323766
 Cs        33.6562929609       12.3501000056       38.7958625825
 Cs        33.6993853605       22.9524140299        7.1905187667
 Cs        33.7090259509       23.0457608530       17.6887381478
 Cs        33.7134194028       23.0043255042       28.3677483036
 Cs        33.5993009016       22.9784073128       38.8504630236
 Cs        33.6666816834       33.6735904983        7.2455313884
 Cs        33.6570940713       33.6605141026       17.6801959374
 Cs        33.6421934731       33.6897091399       28.3731822888
 Cs        33.6902076120       33.6971062320       38.8052236801
 Cs        28.3530701796       33.6432078824       12.3336821479
 Cs        28.3695407918       33.7200817884       23.0225236777
 Cs        28.3271356285       33.6833432589       33.6953452432
 Cs        38.8033179827       12.3934854158       12.4327450252
 Cs        38.8440689950       12.4649476366       23.0647683062
 Cs        38.7962990512       12.3533808848       33.6581619644
 Cs        38.8412271532       23.0832172469       12.5013112489
 Cs        23.0163812594       38.8515103178       23.0217204050
 Cs        38.8440982810       22.9632401980       33.5637754365
 Cs        38.7961999477       33.6535421016       12.3693868068
 Cs        38.8440323256       33.5547607384       22.9802036276
 Cs        38.8059746824       33.6116989407       33.6273158454
 Cs         7.2931073360       12.3568366367        7.3445437114
 Cs         7.1785769850       12.4240193204       17.7043052620
 Cs         7.1491235941       12.5668061751       28.4497857291
 Cs         7.3584353184       12.0142981618       38.6943739367
 Cs         7.3144493787       23.1678300414        7.3347615361
 Cs         7.1377756679       23.2077767164       17.8236392917
 Cs         7.1215500169       22.7827368790       28.2159795849
 Cs         7.2979103960       22.8619722458       38.7184195400
 Cs         7.3824088654       33.9960506921        7.3350144156
 Cs         7.1569745005       33.4540737742       17.6109901132
 Cs         7.1760560954       33.5931091244       28.3398206388
 Cs         7.3143570996       33.6511329903       38.7114118880
 Cs        17.7452956067       12.5806479561        7.1080017895
 Cs        17.6754232726       12.3313144169       17.6843095513
 Cs        17.6447223750       12.2256790415       28.3877406654
 Cs        17.5800376330       12.5774233878       38.8956388558
 Cs        17.6931670289       22.9320935890        7.1376783818
 Cs        17.6480699935       23.0165736648       17.6571921645
 Cs        17.6481381216       22.9933267335       28.3934598977
 Cs        17.8023636518       22.7887337919       38.9227289530
 Cs        17.6473020982       33.6023134483        7.2400408944
 Cs        17.6588328939       33.8004893824       17.6835636797
 Cs        17.6839745066       33.6984118281       28.3493683803
 Cs        17.6818827613       33.5919238517       38.8475898650
 Cs        28.3779067417       12.4125275140        7.2450810153
 Cs        28.3422396501       12.2155078312       17.6799413461
 Cs        28.3345766661       12.3178128135       28.3567438636
 Cs        28.3390743555       12.4127157898       38.8487109376
 Cs        28.2898632927       23.0537273853        7.1288310021
 Cs        28.3825222364       23.0178353645       17.6606910567
 Cs        28.3777356416       23.0289126435       28.3958788966
 Cs        28.1943106779       23.2313178422       38.9352741069
 Cs        28.2691536574       33.4320259136        7.1023247228
 Cs        28.3444102499       33.6947231362       17.6749301155
 Cs        28.3527598311       33.8092626354       28.3849015024
 Cs        28.4190523916       33.4624904884       38.8901397918
 Cs        38.6858315875       12.0275283766        7.3672719325
 Cs        38.7929954772       12.3894659614       17.6840925619
 Cs        38.8441256593       12.4231744234       28.3425755932
 Cs        38.7131185326       12.3675891823       38.7019770790
 Cs        38.7591507066       22.8321373783        7.3983545983
 Cs        38.9082877162       22.9080985227       17.9061401723
 Cs        38.9209117349       23.1453063753       28.1499054324
 Cs        38.7567131375       23.1640183030       38.6756645812
 Cs        38.7397319058       33.6511297771        7.3418355630
 Cs        38.8434653892       33.5933470006       17.6878837719
 Cs        38.7983972006       33.6373631648       28.3715946748
 Cs        38.7075809977       34.0030787021       38.6718824482
 Cs        12.3684763254        7.2258415878       12.3816528798
 Cs        12.4322610305        7.1990931490       23.0122215989
 Cs        12.3378380008        7.2321166834       33.7022884936
 Cs        12.3786192399       17.6604264094       12.3401866471
 Cs        12.3134733023       17.6432945358       23.0304030004
 Cs        12.3466227153       17.6760559903       33.6881372610
 Cs        12.3520262588       28.3372739080       12.3874146261
 Cs        12.3121301789       28.3681220292       23.0218390983
 Cs        12.3575900481       28.3336802043       33.6654180311
 Cs        12.3399283147       38.7864402394       12.3455649607
 Cs        12.4303315099       38.8282290902       23.0436907900
 Cs        12.3674840644       38.7946029956       33.6577534758
 Cs        22.9336917095        7.1946907735       12.4781488407
 Cs        22.9998405455        7.1819274508       23.0211371688
 Cs        23.0231498252        7.1924395904       33.5993866803
 Cs        22.9867703305       17.6754921914       12.3193785361
 Cs        23.0078825656       17.6395152241       23.0305028373
 Cs        23.0022537490       17.6442069645       33.7363246648
 Cs        23.0363791358       28.3520720011       12.3147995700
 Cs        23.0202368838       28.3948208239       23.0275566892
 Cs        23.0130000191       28.3734025042       33.7355642746
 In        31.0648146376       36.4137594086       36.4208694391
 In        14.9497393850       20.3535913564       36.4735863497
 In        14.9372953688       31.0822343120       14.9577745503
 In        14.9354438466       31.0851963681       25.7099704724
 In        14.9537368609       31.0632923361       36.4326263678
 In        20.3007526923        9.5917816035        9.5894606000
 In        20.3486668704        9.5762991964       20.3607024850
 In        20.3516823957        9.5704168502       31.0738366635
 In        20.3505539090       20.3450864810        9.5646389883
 In        20.3418320366       20.3346527810       20.3423213436
 In        20.3270886656       20.3208101696       31.1259684665
 In        36.4304847442       20.3517351678       14.9995865521
 In        36.4863342220       20.3439028375       25.7067806582
 In        20.3616647861       31.0617268962        9.5895324402
 In        20.3341155242       31.1106802048       20.3485741279
 In        20.3281668694       31.0851315786       31.0994754827
 In        36.4456112523       20.2929317013       36.4318576289
 In        36.4289356444       31.0696102909       14.9577438977
 In        36.4360635049       31.0592166587       25.6975909377
 In        14.9575916543       14.9480716189        9.5767406322
 In        14.9360531534       14.9338776410       20.3353270842
 In        14.9318445655       14.9302679354       31.1139063665
 In        14.9660678589       25.6570031753        9.5910091622
 In        14.9309403185       25.7022421469       20.3473052893
 In        14.9352584964       25.6988382259       31.0981390195
 In        14.9805853345       36.4171699993        9.6392205970
 In        14.9560960005       36.4574753658       20.3634866188
 In        14.9557710354       36.4266138433       31.0673855457
 In        31.0673257764        9.5915774361        9.6426513664
 In        31.0634208594        9.5703868309       20.3614012436
 In        31.0646441507        9.5816039600       31.0659917431
 In        36.4086899557       31.0520077856       36.4425563674
 In        31.0649537331       20.3563938020        9.5913242685
 In        31.1188722103       20.3363555049       20.3555196159
 In        31.0891507167       20.3278542732       31.1105885153
 In        31.0669533220       31.0620641817        9.5705123024
 In        31.0902128257       31.0903960110       20.3369098678
 In        31.0736912374       31.0922886866       31.1188452217
 In        25.6606946667       14.9528768059        9.5882277219
 In        25.7015478281       14.9249485498       20.3480213478
 In        25.7018946343       14.9328272062       31.1012555003
 In        25.6933563936       25.6876670985        9.5542288392
 In        25.7124917368       25.7048842687       20.3435955616
 In        25.7024577083       25.7045047183       31.1280664830
 In        25.7271356608       36.4167867313        9.5847491991
 In        25.6881767897       36.4653788931       20.3580009010
 In        25.6751673512       36.4666309085       31.0747919160
 In         9.5851191505       31.0633947215       31.0671987472
 In        31.1180517852       25.7040492288       25.7130935035
 In        31.0656891090       25.6661590862       36.4792158139
 In        36.4168024661       14.9590492139        9.6310744508
 In        36.4362229779       14.9699863619       20.3634663454
 In        36.4266961059       14.9436217920       31.0720023798
 In        36.4274432025       25.7102137558        9.5974547492
 In        36.4853618108       25.6996342335       20.3547475353
 In        36.4365666681       25.6753231827       31.0693432799
 In        36.4722816273       36.4589231988        9.5980639581
 In        36.4448123853       36.4236818032       20.3205348010
 In        36.4104611820       36.4265705319       31.0666609576
 In        31.0700079738       36.4260931185       14.9682102122
 In        31.0665684321       36.4614107579       25.6932543509
 In        25.6616751488        9.5741836051       14.9704246117
 In        25.6718107148        9.5679255835       25.6922014378
 In        25.7306741611        9.5763964447       36.4417220856
 In        25.7039346980       20.3252986020       14.9471326163
 In        25.7110157511       20.3340182456       25.7158743139
 In        25.6792352324       20.3461738232       36.4837907894
 In        25.7066940656       31.0798316200       14.9268396684
 In        25.7046214893       31.1089904066       25.7140682222
 In        25.6687622813       31.0679665976       36.4780635157
 In         9.5882908410       14.9468830818       14.9750419688
 In         9.5730365667       14.9489790515       25.6963028273
 In         9.6096660897       14.9755800624       36.4205787829
 In         9.5826576478       25.6588380439       14.9757146057
 In         9.5744355704       25.6692472107       25.6904515953
 In         9.5802811858       25.7280636836       36.4396414000
 In         9.6202795107       36.4093220380       14.9709542358
 In         9.5823995840       36.4316685664       25.7281696590
 In         9.5823582990       36.4371322442       36.4379560153
 In        20.3242320552       14.9378982842       14.9278418231
 In        20.3256886014       14.9263657972       25.7139583079
 In        20.3548848582       14.9477774559       36.4776423100
 In        20.3347860161       25.7047080939       14.9474427499
 In        20.3414912421       25.7024769077       25.7142667632
 In        20.3491414921       25.6751397565       36.4784662194
 In        20.3601412102       36.4444609874       14.9761342122
 In        20.3536337310       36.4676027143       25.6935348821
 In        20.2940307447       36.4338499880       36.4407856359
 In        36.4042722477        9.5847901131       14.9821189548
 In        36.4391909605        9.5881775724       25.7201655468
 In        36.4395422935        9.5746525642       36.4348659618
 In        14.9523924746        9.5849452025       14.9791494081
 In        14.9508593262        9.5724443897       25.6979246129
 In        14.9798883699        9.6076066111       36.4215362435
 In        31.0707210708       14.9288803037       14.9602106470
 In        31.0882751026       14.9310622855       25.7103265969
 In        31.0662338170       14.9481477864       36.4362629115
 In        14.9427532120       20.3160481888       14.9272171923
 In        14.9301033249       20.3187987127       25.7130681703
 In         9.5733023982        9.5641693042        9.6005867812
 In         9.5829328996        9.5792371051       20.3103274592
 In         9.6047074730        9.6031001542       31.0698896820
 In         9.6032587686       20.2906322843        9.5862258238
 In         9.5793234646       20.3450104588       20.3588637751
 In         9.5717428112       20.3507717768       31.0720369775
 In        31.0867837220       25.6992581647       14.9269306241
 In         9.6015293509       31.0509479449        9.6410577205
 In         9.5753744879       31.0627903962       20.3622532258
 Na        25.7011845199       31.0793456506       20.3303932902
 Na        25.7059613051       31.0738362787       31.0855615163
 Na        36.6325949104        9.4333476447        9.4173740889
 Na        36.5045567501        9.4651839254       20.3474164625
 Na        36.5372916463        9.4726461690       31.0735967668
 Na        36.5420383629       20.3347347685        9.5328752069
 Na        36.7751158099       20.4041222495       20.4161670627
 Na        36.6539956779       20.3292852001       31.0291404397
 Na        36.5178436849       31.0760130165        9.4628170850
 Na        36.6531387035       31.0215974481       20.3431476377
 Na        36.5820988550       31.0378481669       31.0562361563
 Na         9.3456648152       31.0079214237       25.6889598838
 Na         9.4786499984       31.0771208351       36.5434812377
 Na        20.3229463801        9.3759895181       15.0169466277
 Na        25.6917570785       20.3276534054       31.0949417405
 Na        20.2437739307        9.2554942947       25.7768965731
 Na        20.3392677043        9.4850154375       36.5414713862
 Na        25.7181341478       20.3208200173       20.3351366059
 Na        25.6827444515       20.3411481900        9.3645487054
 Na        20.3223713991       20.3244241849       14.9526323201
 Na        25.7544924219       30.9418418522        9.1619320997
 Na        20.3161068375       20.3141838850       25.7317937647
 Na        20.2491031675       20.2508073109       36.7794469265
 Na        20.3240166120       31.0694598486       14.9885995545
 Na        20.3296564876       31.0788507071       25.7124335673
 Na        20.3369435293       31.0128442494       36.6822553706
 Na        14.9824549491       14.9779244679       14.9668795086
 Na        14.9557744749       14.9541220556       25.7366997784