    1296
 i =      252, E =    -23613.9471595368
 Cs        33.9070644828        6.8303975061       11.9707858351
 Cs        34.0662952448        6.8123778905       22.8090414566
 Cs        34.0069449743        6.9367047552       33.8240281800
 Cs        33.9119112892       17.4951959122       12.0674389482
 Cs        34.0715387088       17.5870587448       23.0092792694
 Cs        33.9459712567       17.6310645276       33.9905189298
 Cs        33.9132406059       28.4457872731       11.9532232573
 Cs        34.0131067985       28.5428239311       22.9861191275
 Cs        33.8815431695       28.4521586498       34.1190865040
 Cs        33.9790382233       39.1119294984       12.0375734354
 Cs        33.8986068052       39.2532871320       23.0181471852
 Cs        33.9439819663       39.0760538275       33.9922822803
 Cs        12.1209111168       12.1375567851       12.0520636042
 Cs        12.0875784718       12.0361179949       23.0923984043
 Cs        12.1099940984       12.0866446697       33.9464646692
 Cs        12.0193166320       23.0174455783       12.1620925732
 Cs        11.9934693937       23.0111694799       22.9851346256
 Cs        12.0482045085       22.9141434280       33.9849925120
 Cs        12.1174132815       33.9186151037       12.0667987309
 Cs        12.0342227277       33.9423717425       22.9487101042
 Cs        12.1016738772       33.9480124228       33.9565647383
 Cs        22.9312215657       12.0371647519       12.1367280804
 Cs        22.9272931698       11.9761761201       23.0260275195
 Cs        22.9397661559       12.0429396075       33.9563841943
 Cs        23.0670090925       23.0175725458       11.9154090347
 Cs        23.0238560759       23.0203623293       22.9707925956
 Cs        23.0371126735       22.9357440567       34.1239032080
 Cs        23.1275215688       33.9715620461       12.0347946532
 Cs        22.9603766155       33.9937799689       23.1323582872
 Cs        23.0502246874       33.9239728852       34.0580216864
 Cs        33.8862038584       12.0363927190       12.0890277639
 Cs        33.9550432941       12.0710792062       22.9291780026
 Cs        33.9444994625       12.1228363170       33.9151219121
 Cs        34.0114309598       23.1108401054       12.0213258811
 Cs        34.2346010176       23.0209058108       22.9809285628
 Cs        33.8376891538       23.0455303001       34.1244712856
 Cs        33.9752488344       33.8571321294       12.0190511248
 Cs        33.8686579759       34.0631303451       23.0571809691
 Cs        33.8166327509       33.9289212149       34.0294442454
 Cs        12.1436282602        6.9927906792        6.9918200300
 Cs        12.2232858167        6.7795700139       17.4658143228
 Cs        12.6141954550        6.5767486339       29.0358063579
 Cs        11.6876111114        7.1351309712       39.1806088202
 Cs        12.5280735682       17.7762411775        6.7001316797
 Cs        12.0823739666       17.5194930799       17.4885903462
 Cs        11.7306002613       17.4480649868       28.5237570305
 Cs        12.3293832218       17.5461130068       39.4575685647
 Cs        12.1324731074       28.5387034388        6.8852739565
 Cs        11.8049231512       28.5149401912       17.5045486499
 Cs        12.0529346121       28.4573533684       28.5121250632
 Cs        12.0594662446       28.5112009198       39.1673071568
 Cs        11.7618471521       38.9080568043        6.8917025693
 Cs        12.4782068466       39.3276111592       17.1026689150
 Cs        12.2169366357       39.2065789119       28.5458371673
 Cs        12.1273762078       39.0590175188       39.0585499433
 Cs         6.9446534947        6.9948884744       17.2760095340
 Cs         7.1337289608        6.7391654963       28.3073403728
 Cs         7.0770144515       17.2304954633        6.9319035632
 Cs         6.7395266155       17.2567755031       17.6612109553
 Cs         6.7542392050       17.7341608022       38.9112558140
 Cs         6.9674836834       28.2709007346        7.0345734124
 Cs         6.7584959108       28.4653529021       28.5523730116
 Cs         6.9579157728       28.7833433535       39.0632394469
 Cs         7.0866436402       39.1907901640       17.7255155591
 Cs         6.9813280442       39.0309428657       28.7919520418
 Cs        23.1591509243        6.8608209499        7.0537877420
 Cs        23.2706223504        6.6817756678       17.8515773169
 Cs        22.6680886030        6.6252754700       28.1909804445
 Cs        22.8219875223        6.6435205938       38.8380160601
 Cs        23.1855694550       17.6741046571        6.7540489509
 Cs        23.0726257317       17.4836333515       17.5613978552
 Cs        23.0989264830       17.5155307870       28.6402934675
 Cs        22.7027352533       17.7622757658       39.4042693674
 Cs        17.2121074102        6.9839559857        7.0098024150
 Cs        17.4932090093        6.7268458614       17.5162137661
 Cs        17.7787498748        7.1489898921       39.3018323797
 Cs        22.9208952940       39.1703534288       33.8839000032
 Cs        17.5367523289       17.5992682820       17.5194516118
 Cs        17.4701598846       17.4368580495       28.7057937013
 Cs        23.2335054872       39.2358529772       12.2322996222
 Cs        17.5351351177       28.2087074073        6.7797891580
 Cs        17.4365154038       28.6124927362       17.5338993564
 Cs        17.5385425978       28.5592565408       28.6383910858
 Cs        17.3084952951       28.3993774928       39.3528552858
 Cs        17.8017360440       39.0641340683        6.9517010919
 Cs        17.4654684020       39.2739581827       28.4323012917
 Cs        17.1949818248       39.0391368938       39.0896088083
 Cs        23.4096566126       28.8255076445        6.6242355197
 Cs        23.0611666951       28.5227149124       17.4180108929
 Cs        22.9858272755       28.5327759536       28.5453878225
 Cs        23.2989999285       28.2452750704       39.3793682396
 Cs        22.8843525196       39.0211585372        6.8646405028
 Cs        22.6871849513       39.2102288688       17.8272240749
 Cs        23.3367449880       39.3646137245       28.2579625955
 Cs        28.2352435972        6.9531037917        6.9341899326
 Cs        28.5989423736        6.7538483064       28.4219588946
 Cs        28.8269565973        6.9598822929       39.0102811510
 Cs        28.4392344795       17.4293506804        6.9174835727
 Cs        28.5896008570       17.4810724603       17.5762634522
 Cs        28.5878670992       17.5355639499       28.5138980388
 Cs        28.4328889104       17.3986683377       39.3338871532
 Cs        28.5433579893       28.4896884720       17.3371530856
 Cs        28.4960510105       28.5624802493       28.5166135498
 Cs        23.1736991918       39.1055034049       39.0815354012
 Cs        28.9231061187       39.0007126176        6.9144587615
 Cs        28.3918657872       39.2797161928       17.2007315614
 Cs        28.2410066199       38.9990188613       39.1236485504
 Cs        38.8759791165        6.8400360225       17.6996487546
 Cs        39.0223865415        6.9629841195       28.7291124519
 Cs        38.9773826795       17.7317701244        6.8338850400
 Cs        39.2075356844       17.4152655006       17.4439651263
 Cs        39.2571433461       17.8017742241       28.7201784494
 Cs        39.1242970782       17.2378717045       38.9877785767
 Cs        34.3352171149        7.0351599463        6.9459135246
 Cs        33.5427341022        6.6828078370       17.2120201099
 Cs        39.1704220627       28.7537598937        7.0276000854
 Cs        39.2252544624       28.6724176583       17.7494920163
 Cs        39.1308934005       28.6102181552       28.7158180529
 Cs        39.0469077784       28.2678603587       39.0522513432
 Cs        33.8477896788        6.8672505138       28.4843112868
 Cs        33.8876045334        6.9308968150       38.9426907054
 Cs        39.1601553278       38.9474888761       17.2654539115
 Cs        38.7916794635       39.2778365651       28.3135103625
 Cs        33.6272129954       17.2961434083        6.7855463648
 Cs        33.9603210893       17.5031289102       17.4746735400
 Cs        34.0162158766       17.5714764236       28.4448015692
 Cs        33.9239874565       17.5514215176       39.2604670336
 Cs        33.9703092425       28.5427522546        6.6862263479
 Cs        33.9926222739       28.4310804418       17.4544333180
 Cs        33.9206688896       28.5542317466       28.4502203876
 Cs        33.5372340985       28.6523361289       39.4079231070
 Cs        33.9928945538       39.0849300772        7.0077525282
 Cs        33.9799823522       39.2222874322       17.6194506589
 Cs        33.5421492032       39.2489399385       28.7543786716
 Cs        34.3667415115       38.9953121229       39.0317523002
 Cs         6.9744419297        6.9945608061       12.2286088466
 Cs         6.6241320789        7.2091702160       23.2686482359
 Cs         7.1699883086        6.8507198216       34.3849442651
 Cs         6.8606584140       17.5693786021       12.0720524649
 Cs         6.6556713572       17.9116390729       23.3729729690
 Cs         6.6065724128       16.9970494458       33.4440135268
 Cs         6.7377957808       28.6717726433       12.4212146160
 Cs         6.6813097680       28.2091176502       22.6774451533
 Cs         6.8069708544       28.5405194742       33.8045726024
 Cs         7.1175457796       39.0457491602       11.5778820646
 Cs         6.7196086873       38.9174848995       22.7994221132
 Cs         6.9742079948       39.0420754275       33.8457932145
 Cs        17.5221998501        6.8449849782       12.1716861419
 Cs        17.7955086001        6.6589988702       23.2775860001
 Cs        17.5791174813        6.6095854501       33.7252931836
 Cs        17.6187544683       17.5475718430       11.8912526338
 Cs        17.4464069655       17.5132937816       23.1547569809
 Cs        17.4896402662       17.5230809152       34.3643726774
 Cs        17.3810427847       28.5221838680       12.1719515609
 Cs        17.5267821243       28.6126823072       23.0894949321
 Cs        17.5508552881       28.5618477476       34.0245778460
 Cs        17.4460612103       39.2375319385       12.3681289103
 Cs        17.8374029441       39.3635969168       22.6698747768
 Cs        17.5900178974       39.2307721466       33.8773768149
 Cs        28.5063419610        6.7165912118       12.3490859572
 Cs        28.1948438433        6.7084207061       22.7171336430
 Cs        28.5042020953        6.8589790976       33.8703209787
 Cs        28.4671693708       17.4886168355       12.0521370837
 Cs        28.6224224675       17.5643560211       23.0872179381
 Cs        28.4440157397       17.5523526752       34.0928302323
 Cs        28.5543954756       28.3911676936       11.6944013778
 Cs        28.5360014864       28.5314274493       22.9297890058
 Cs        28.4513848476       28.5000726986       34.2703386784
 Cs        28.6117100518       39.1171819535       12.0365569123
 Cs        28.2457985411       39.3280929176       23.4221257284
 Cs        28.6026184509       39.2811568510       33.6849682296
 Cs        38.9971409903        7.0027438551       11.6120263819
 Cs        39.2195901028        7.0842180713       22.7575488789
 Cs        39.0896438782        7.0278373616       33.7855123609
 Cs        39.1501537811       17.6619969542       11.9141348368
 Cs        39.3076118966       17.7511388557       22.6899961503
 Cs        39.1445250302       17.5884326848       33.8719450760
 Cs        39.2819143194       28.3449655484       12.2172219650
 Cs        39.3800557634       28.1693876811       23.4148870375
 Cs        39.0486461081       28.5148346159       33.9100439279
 Cs        39.1672027929       38.9696864661       12.2152025856
 Cs        39.1706837345       38.9897546682       23.2349736420
 Cs        39.0297941207       38.9594130884       34.3665648785
 Cs         6.9215594396       12.0867536619       12.1435656112
 Cs         6.8505537285       12.3176719770       22.7613280430
 Cs         6.9154748884       11.8840363465       33.8733464178
 Cs         6.8104771900       22.9272243054       12.1647064390
 Cs         6.8481485612       23.0361336170       23.0469661505
 Cs         6.7700650249       22.6838313804       34.2226673946
 Cs         6.8931402683       34.0171587925       12.0666617313
 Cs         6.7963096348       33.7505381207       23.1751446110
 Cs         6.8893354965       33.9466965981       33.9145778639
 Cs        17.5407202968       12.1219114660       12.0613880016
 Cs        17.4642397479       11.8651091149       23.0318935555
 Cs        17.6127905202       11.9861990214       34.0596658770
 Cs        17.5249369269       23.0410728594       12.0848324585
 Cs        12.0251753485       12.1548739002        6.8968076041
 Cs        12.1368492186       12.1340993977       17.5243718608
 Cs        12.0103751776       11.9497012126       28.4408867432
 Cs        11.9147623724       12.1602967450       39.1483098432
 Cs        17.4847224801       23.1032411594       23.1044217142
 Cs        12.1123570307       23.1080781394        6.9107244039
 Cs        11.9927012232       23.0159276184       17.5140571756
 Cs        11.9812548147       22.9348963312       28.5584828589
 Cs        12.3082788588       23.2700562670       39.2335622292
 Cs        17.4749353606       23.0931411929       34.1753129664
 Cs        12.1597654425       33.7934040096        6.8343188066
 Cs        11.9306988529       33.9947900448       17.5444416824
 Cs        12.0700449073       33.9237779936       28.4836666889
 Cs        12.0855234024       33.9645662564       39.1437671279
 Cs        17.5649227999       33.9252448835       12.0727706736
 Cs        17.4417720902       34.1112537057       23.0851178403
 Cs        17.5633271166       33.9246995753       34.0080045548
 Cs        22.9939757748       11.9593604829        6.7977024293
 Cs        22.9155734905       11.9150959899       17.4875305331
 Cs        22.9659623367       11.9720518945       28.5158358363
 Cs        22.7526274323       11.8299175204       39.2681620870
 Cs        22.6191474852       23.2833476281        6.7837178365
 Cs        23.0398427688       23.0549474537       17.4125820484
 Cs        22.9744886051       22.9967576321       28.5834832793
 Cs        23.0103314857       22.9832955009       39.2782889637
 Cs        23.0125109925       34.0106780273        6.8896483098
 Cs        23.1313427108       34.0012147521       17.4199557999
 Cs        22.9941903739       34.0208676296       28.5867835781
 Cs        22.9195043525       33.8631404830       39.2904570920
 Cs        28.3851932392       11.9604148681       12.0893730660
 Cs        28.5082697185       11.9782832017       22.9644655653
 Cs        28.4736334314       12.1072773308       33.9160311333
 Cs        28.5190398346       23.0683118249       11.8346027468
 Cs        28.5701456360       23.0182370851       22.9373351682
 Cs        28.4816070297       23.0156406482       34.1835168814
 Cs        33.8497444504       12.0828003056        6.8605525059
 Cs        33.9079692419       12.0413839941       17.4951744974
 Cs        33.9648511969       12.1244937493       28.4207805508
 Cs        33.8920053052       12.0057510660       39.1127726411
 Cs        34.2075131336       23.0861214927        6.6498586773
 Cs        34.0583399259       23.0368828553       17.5420758876
 Cs        34.0036691185       23.0064890856       28.5431913029
 Cs        33.8563233429       22.9337744188       39.3036410443
 Cs        34.0105179145       33.9744465612        6.8691570700
 Cs        33.9559827930       33.9736500483       17.6065562654
 Cs        33.8814528802       33.9754724361       28.4725784944
 Cs        33.9363817627       33.9749465840       39.2122502068
 Cs        28.5937190776       33.8980374072       11.9759950753
 Cs        28.5294794491       34.0314655229       23.0392279464
 Cs        28.4148452310       33.9693134972       34.0087758142
 Cs        39.1291978071       12.0888974310       12.1394788017
 Cs        39.2057624186       12.2430981245       23.0398790107
 Cs        39.1615152600       12.2155782343       33.9888955619
 Cs        39.1926303081       23.0893445200       12.2360629664
 Cs        23.0037959083       39.1622642681       23.0153707765
 Cs        39.2039333053       22.9923556513       33.8726017315
 Cs        39.1859057891       33.8910430386       12.1186773823
 Cs        39.2345347863       33.6814852375       22.7997483240
 Cs        39.1455334203       33.7640196072       33.9718486814
 Cs         6.8999213835       12.1576846872        7.0599916078
 Cs         6.9268454306       12.0682877803       17.5227687026
 Cs         6.6034126234       12.3197498187       28.4762140745
 Cs         6.8849156431       11.6430840637       38.8994551436
 Cs         7.0252284593       23.1886826725        6.9328528795
 Cs         6.6958403773       23.3640472862       17.7758396099
 Cs         6.7331746545       22.7638568292       28.2374720772
 Cs         7.1942951811       22.7794679037       39.4062170491
 Cs         7.0549664140       34.3197872824        6.9712690482
 Cs         6.5944256347       33.5339014684       17.4442967269
 Cs         6.8628933656       33.8798622765       28.4543343561
 Cs         6.9745403375       33.8410323365       39.0550464930
 Cs        17.5533861661       12.2586349919        6.7586159655
 Cs        17.5246974575       11.9704966706       17.5994320408
 Cs        17.5187936309       11.7034579405       28.5055826164
 Cs        17.0188809778       12.5924134983       39.4631755711
 Cs        17.4244548375       22.9131412750        6.8593114809
 Cs        17.4742791088       23.1379115568       17.6180339886
 Cs        17.5359692028       23.0571514695       28.6569278988
 Cs        17.8849718733       22.6337098070       39.4546972414
 Cs        17.7416064013       34.0311382432        6.8648211320
 Cs        17.4912368083       34.1821691898       17.5649015991
 Cs        17.5721899499       33.9962721058       28.5363191735
 Cs        17.5404225818       33.8878549872       39.2475116538
 Cs        28.5295609417       12.1876247738        6.9001863512
 Cs        28.4658604954       11.8219486576       17.4848928311
 Cs        28.5174466890       12.0753341063       28.4461339414
 Cs        28.5378980822       12.1800799884       39.1968547425
 Cs        28.2298407858       22.6273231894        6.6390361988
 Cs        28.5889194040       22.9899881570       17.3754360825
 Cs        28.5134435547       23.0056963794       28.5232391360
 Cs        28.1913422879       23.3574598159       39.4550929131
 Cs        28.3813758210       33.5962125415        6.6608686340
 Cs        28.6089338243       33.9388534157       17.4361552817
 Cs        28.4525539848       34.1664919107       28.5618624540
 Cs        28.6214192368       33.6529863593       39.3301754472
 Cs        38.9972655101       11.6771246582        6.9789759645
 Cs        39.1706430204       12.0707817125       17.4148661347
 Cs        39.2471411967       12.1607877125       28.3428746668
 Cs        39.0508970944       12.1739099214       39.0427072938
 Cs        39.3395892248       22.8118595426        7.1665478759
 Cs        39.3382758022       22.7371147847       17.7023362318
 Cs        39.2879649035       23.3558493330       28.2085552158
 Cs        39.1445035131       23.2061097882       39.0527425170
 Cs        39.1464615769       33.8215297171        6.9959851515
 Cs        39.1674132588       33.8597683408       17.4979574120
 Cs        39.1325064771       34.1806279835       28.2256533247
 Cs        39.0149512651       34.3175795006       39.0258337228
 Cs        12.1360551078        6.9105234122       12.0475574868
 Cs        11.7972206590        6.7339782065       23.3613665649
 Cs        12.1907027668        6.8931078576       34.1446399542
 Cs        12.1118384100       17.5144097852       12.0710294335
 Cs        11.8973156268       17.4877440725       22.9105199081
 Cs        11.9687800691       17.5921785204       34.0596773689
 Cs        12.0374077586       28.5177050596       12.1498759236
 Cs        11.9882756950       28.5340316074       23.0069773494
 Cs        12.1264613156       28.4946439391       33.9560644340
 Cs        12.1291314937       39.0915329225       11.9572279774
 Cs        11.8492446180       39.2329246358       22.7172989204
 Cs        12.0811948112       39.1356304100       33.9345287196
 Cs        22.8070898373        6.7801374182       12.2519928507
 Cs        23.0008662813        6.8180034694       23.0152495915
 Cs        23.2587181633        6.8195483577       33.7194750056
 Cs        22.9851332973       17.4805359052       12.0723363498
 Cs        23.0827256152       17.4939151771       23.1299416622
 Cs        22.9617362085       17.4411384069       34.1653404257
 Cs        23.0951268277       28.4891353700       11.8995843923
 Cs        22.9944976100       28.5728336796       22.9711381342
 Cs        22.9701100420       28.5310628982       34.1452446679
 Bi        31.2283359098       36.7539706921       36.8566733258
 Bi        14.7365748131       20.3154650942       36.9033513734
 Bi        14.7158864769       31.3716479583       14.7510809731
 Bi        14.7112038339       31.3337443506       25.7848676257
 Bi        14.7331047527       31.2956156673       36.8141620629
 Bi        20.2096106958        9.2317171984        9.2578690413
 Bi        20.2451864474        9.1781328720       20.2886710137
 Bi        20.3244663320        9.1574367795       31.2965457603
 Bi        20.2683176482       20.2717762107        9.1943020795
 Bi        20.2601274258       20.3050658622       20.2889248883
 Bi        20.2371695778       20.2310617294       31.3992090889
 Bi        36.7759977919       20.2365247412       14.6901943851
 Bi        36.9081665532       20.2927943285       25.7779703064
 Bi        20.3188690486       31.2580631455        9.1533955577
 Bi        20.2784354194       31.3697687566       20.2398658564
 Bi        20.2784837767       31.3120539894       31.3698814442
 Bi        36.8139401090       20.2449463813       36.8235696677
 Bi        36.8127352539       31.2396700264       14.7354583630
 Bi        36.8255254562       31.3059588049       25.7403707721
 Bi        14.7702800869       14.7845376194        9.2152980844
 Bi        14.7258601901       14.7110748122       20.3199854419
 Bi        14.7082938179       14.6991354129       31.3462823517
 Bi        14.7075358849       25.7738854437        9.3295586581
 Bi        14.7029674786       25.8315171025       20.3009697364
 Bi        14.7057631997       25.7404671974       31.3651088238
 Bi        14.8433309061       36.7581906462        9.1856731225
 Bi        14.7001885773       36.8894252308       20.2554588617
 Bi        14.7602796668       36.7726815709       31.2984456849
 Bi        31.2301071632        9.2116338615        9.2065117365
 Bi        31.2813442830        9.1482529207       20.2405924740
 Bi        31.3105655840        9.3082449881       31.2444744533
 Bi        36.7319498010       31.2411321587       36.8402398324
 Bi        31.3021526563       20.2789804630        9.1015024472
 Bi        31.3351713711       20.2557257487       20.2298438327
 Bi        31.2812033033       20.2885483151       31.3638059172
 Bi        31.3403417548       31.2381386476        9.1244928385
 Bi        31.3214850334       31.3166516788       20.2360870669
 Bi        31.3017993199       31.2742881182       31.3536876409
 Bi        25.6925856934       14.6795195703        9.2622139371
 Bi        25.7591924610       14.7043796211       20.2931286666
 Bi        25.7587408353       14.7247014434       31.3508967322
 Bi        25.7677291195       25.7415564406        9.0169649184
 Bi        25.8040473411       25.7976550720       20.2072483447
 Bi        25.7572686611       25.7746443731       31.3787311645
 Bi        25.8887062931       36.8006767463        9.1661465270
 Bi        25.7975933195       36.8698703025       20.2549109340
 Bi        25.7261051106       36.8067539409       31.3207199963
 Bi         9.2705501510       31.2744030147       31.2904085000
 Bi        31.3177332142       25.7536185364       25.7564960502
 Bi        31.2465736151       25.7394003815       36.9360155059
 Bi        36.7531651039       14.7557309479        9.1714914256
 Bi        36.7752926645       14.7334094237       20.2259461295
 Bi        36.8061979071       14.7830499770       31.2615920198
 Bi        36.8630903991       25.7692068253        9.2453710204
 Bi        36.9024412850       25.7743723593       20.2982930549
 Bi        36.7159770847       25.7503052372       31.3124478251
 Bi        36.9046936043       36.7809948688        9.2437156059
 Bi        36.8423047925       36.7694559211       20.2506404970
 Bi        36.7441852613       36.7982489996       31.2612765598
 Bi        31.3569703667       36.7754109484       14.7340673574
 Bi        31.2541122105       36.8363580087       25.7775380345
 Bi        25.6968725210        9.1503644581       14.7672921426
 Bi        25.7589062318        9.1899773945       25.7795981432
 Bi        25.7904232461        9.1768250648       36.8024541126
 Bi        25.7797616913       20.2592030687       14.6923741719
 Bi        25.7739249029       20.2759109757       25.7945544502
 Bi        25.7708896846       20.2330232035       36.9331189852
 Bi        25.8352615250       31.2906945022       14.6350825336
 Bi        25.7835315991       31.3164954560       25.7840344153
 Bi        25.7224992668       31.2772042632       36.9119468019
 Bi         9.2586565898       14.7554123212       14.7488226874
 Bi         9.1669154045       14.7434109607       25.7297833281
 Bi         9.0672923083       14.7686910140       36.6753381434
 Bi         9.1561113124       25.7705121835       14.7768217797
 Bi         9.2129844781       25.7844517479       25.7870579856
 Bi         9.1915496106       25.7575069812       36.8560251651
 Bi         9.3076872355       36.8743269803       14.7435999710
 Bi         9.1974685012       36.8155037033       25.7660068780
 Bi         9.2041814109       36.7945109082       36.8000457393
 Bi        20.2425177214       14.7378362849       14.7771297326
 Bi        20.2147775938       14.7011453655       25.8256092582
 Bi        20.2361445762       14.6683543078       36.9296201766
 Bi        20.2784678720       25.8318731738       14.7034752665
 Bi        20.2755019219       25.7953156213       25.8067126735
 Bi        20.2357323433       25.7368159938       36.9550425400
 Bi        20.3504917623       36.8166141412       14.7242439198
 Bi        20.2424283586       36.8400064493       25.8029089569
 Bi        20.2029326628       36.8010580849       36.8382996481
 Bi        36.7020326793        9.1723962830       14.7168962664
 Bi        36.8182745820        9.2397916747       25.7274849040
 Bi        36.8272715806        9.2405869197       36.7501924980
 Bi        14.7344080102        9.2757686159       14.7581388756
 Bi        14.6796447411        9.0967283698       25.8026383103
 Bi        14.8039419137        9.3654120992       36.9862629957
 Bi        31.2672404261       14.6839868732       14.6988981312
 Bi        31.3410733059       14.7222609154       25.7406484492
 Bi        31.2948346653       14.7513861725       36.7862905389
 Bi        14.7144350924       20.2941226854       14.7540387298
 Bi        14.6952515423       20.2616559535       25.8237929082
 Bi         9.2013571870        9.2252673646        9.2647084934
 Bi         9.1900445050        9.1841396553       20.2933343037
 Bi         9.3824361110        9.0463196198       31.2619707505
 Bi         9.2835712139       20.2303417544        9.2176984405
 Bi         9.1201040230       20.2609873413       20.2759226804
 Bi         9.1261260946       20.2210782374       31.3613635957
 Bi        31.3408861642       25.7353551913       14.6377450964
 Bi         9.2327126766       31.2576178737        9.2831850137
 Bi         9.1638800429       31.2833990833       20.2875126317
 Na        25.7999358793       31.3464346510       20.2149024819
 Na        25.7888140374       31.2311961168       31.3412417756
 Na        36.9132950056        9.1074909143        9.0515485644
 Na        36.8908899284        9.1086883536       20.2167254071
 Na        36.9450204803        9.1846716899       31.2324547855
 Na        36.9045188878       20.2736214169        9.0275120106
 Na        37.1054541441       20.2729932417       20.2558057925
 Na        36.9648878542       20.3075047056       31.2714608451
 Na        36.9744287013       31.2620119441        9.1162988159
 Na        36.9611143789       31.2107306365       20.2501189767
 Na        36.9095706073       31.2685327680       31.2835397099
 Na         8.9787798593       31.2524154506       25.7690926059
 Na         9.1024852743       31.2736948039       36.8959799117
 Na        20.2211774292        8.9523944070       14.7952773083
 Na        25.7797174562       20.2684957351       31.3604490184
 Na        20.2013408296        8.9179085788       25.8216696648
 Na        20.2338398286        9.0601348755       36.9276519236
 Na        25.7886082519       20.2703103424       20.2272224925
 Na        25.7584513496       20.2060888553        9.0170408734
 Na        20.2610957051       20.3009172191       14.7450450032
 Na        25.8383413175       31.2318587902        8.9170288065
 Na        20.2348703853       20.2508670388       25.8236290811
 Na        20.2218361530       20.1928530577       37.1083710761
 Na        20.2823554342       31.2939219078       14.7042598680
 Na        20.2499189745       31.2905553532       25.7986283134
 Na        20.2359462878       31.2483772378       37.2103963348
 Na        14.8089023935       14.7995337416       14.7868866696
 Na        14.7445153973       14.7073833735       25.8555264518