    1296
 i =       35, E =    -28433.6345187798
 Cl        20.2551650395       30.9683092144        6.6382552061
 Cl        20.3476021579       30.9880886134       17.5277298680
 Cl        20.3432819980       31.0391386832       28.2668236295
 Cl        20.3567437552       30.9951537745       38.9374635161
 Cl        30.9705904415        9.6930805713       12.4689580942
 Cl        31.0164908747        9.6398093012       23.0944530985
 Cl        30.9872407379        9.6740842719       33.7564995834
 Cl        36.2669208675       33.7536613052       36.2266507184
 Cl        31.0430046385        9.6579823235        6.7708788955
 Cl        30.9623695473        9.7149584904       17.6017299429
 Cl        30.9638590147        9.6984916052       28.2366552056
 Cl        31.0124579236        9.6352699689       38.9160686351
 Cl        30.9576923561       20.2713596846        6.6350512878
 Cl        30.9810005902       20.3730656623       17.5819512838
 Cl        30.9967428271       20.3619393635       28.2543447914
 Cl        31.0285990880       20.3358952747       38.9248771428
 Cl        30.9853649260       30.9856924083        6.6576429381
 Cl        30.9892353814       30.9969618572       17.5711681365
 Cl        30.9735738693       31.0040168996       28.2510426657
 Cl        30.9812293765       30.9995960092       38.9211642405
 Cl        30.9756883146       20.3724374701       12.4507840127
 Cl        31.0001561612       20.3675670559       23.1001130823
 Cl        30.9953503110       20.3875345640       33.7760558150
 Cl        30.9914712754       15.0150763874       33.6237440421
 Cl        36.3259742017       20.3451770459       17.7800700800
 Cl        36.3248410668       20.3540090902       28.4306811059
 Cl        36.0736300010       20.0421051236       39.2515506351
 Cl        36.3645827000       31.0199511789        7.0846538695
 Cl        36.2920414349       30.9814393506       17.7831488134
 Cl        36.2905526323       30.9790409167       28.4294834634
 Cl        36.3524762384       31.0753681198       39.2064181524
 Cl        15.0154334187       12.2158276666        9.6909398144
 Cl        15.0118243022       12.2293248640       20.3768634672
 Cl        15.0121095531       12.2527787535       30.9710689093
 Cl        25.6773633373       39.3461816011       20.3617442437
 Cl         9.6675785574       31.0473555416        6.7564602997
 Cl         9.7105453127       30.9716202692       17.5778436723
 Cl         9.6886081847       30.9890819179       28.2487360921
 Cl         9.5934303655       31.0299984839       38.9160780630
 Cl        15.0416065745       22.9032830150        9.6714922145
 Cl         9.7423943068       36.2364697762       33.5590891090
 Cs         7.3471916582        7.3667658409       17.9695253780
 Cs         7.4036305348        7.4059524734       28.4772323330
 Cl        36.2415964054       12.4555184928       36.2380151620
 Cs         7.3493606730       17.7746685387        7.3492337031
 Cs         7.2511192721       17.6591114266       17.6632846154
 Cs         7.2453662175       17.6680146118       28.2949820069
 Cs         7.4031600206       17.5488983430       38.5912973941
 Cs         7.3994388857       28.4488811808        7.3993319580
 Cs         7.2531227126       28.2924199543       17.6684981400
 Cs         7.2422531958       28.2939779016       28.2959190907
 Cs         7.3279674396       28.0230114845       38.6564989378
 Cl        36.3190517522       33.7552916994       15.0183753251
 Cs         7.4037710692       38.5951634074       17.5326557324
 Cs         7.3238318159       38.6516393870       28.0365384602
 Cl         9.9415914026        9.9411590488        6.7728998345
 Cs        17.9668601663        7.3613643828        7.3540536191
 Cs        17.7010176483        7.2622559554       17.7013256783
 Cs        17.7103721664        7.2411856844       28.3320090625
 Cs        17.5451649314        7.4023659766       38.5901871678
 Cs        17.6647772070       17.6589180861        7.2529017597
 Cs        17.6718746148       17.6711292781       17.6739998361
 Cs        17.6902862061       17.6862532277       28.3220475240
 Cs        17.6615584326       17.6888247959       38.7546474374
 Cs        17.6720085549       28.2933397847        7.2484803021
 Cs        17.6765023317       28.3175983145       17.6730804873
 Cs        17.6674179651       28.3378044579       28.3370232002
 Cs        17.6516041050       28.3034174007       38.7440503438
 Cs        17.5341304123       38.5933882626        7.4028937929
 Cs        17.6811713359       38.7494235859       17.6701276348
 Cs        17.6887148953       38.7324080406       28.2637429550
 Cs        17.8133132454       38.6368076379       38.6402703953
 Cs        28.4661894478        7.4140398553        7.4135112324
 Cs        28.3134981567        7.2702009912       17.6899237085
 Cs        28.3215201877        7.2638650932       28.3144911547
 Cs        28.0332332573        7.3432616413       38.6335258064
 Cs        28.3116615789       17.6967784899        7.2604880123
 Cs        28.3062202481       17.7008286363       17.7042642390
 Cs        28.3212021705       17.6798506311       28.3454175234
 Cs        28.3163018327       17.6730277283       38.7234603242
 Cs        28.3018222289       28.2998833901        7.2582478803
 Cs        28.3272631077       28.3302273165       17.6787078260
 Cs        28.3320402156       28.3354395236       28.3158878117
 Cs        28.3379919964       28.2934100600       38.7332829306
 Cs        28.0390427064       38.6467197079        7.3528584219
 Cs        28.3522295291       38.7431027380       17.6426704164
 Cs        28.3355563660       38.7229921138       28.2862415271
 Cs        28.5595739502       38.6453588663       38.6384317449
 Cl        36.3533623274       23.0963329101       14.9789037807
 Cs        38.5850553864        7.4184239830       17.5631335682
 Cs        38.6421500934        7.3596323750       28.0313551538
 Cl        36.3405560071       23.1135986337       25.6650192059
 Cs        38.5885129056       17.5398256131        7.4135507898
 Cs        38.7262032681       17.6939816055       17.6906373874
 Cs        38.7286825255       17.6815261992       28.3180607184
 Cs        38.6553140681       17.9647967056       38.6288881350
 Cs        38.6459769330       28.0456403491        7.3566519753
 Cs        38.7356441972       28.3032758852       17.6997589993
 Cs        38.7603389620       28.2939922505       28.3291992259
 Cs        38.6179576427       28.4580816415       38.5890794404
 Cl        36.3067867730       33.7665836412       25.6288899792
 Cs        38.6438648038       38.6429464346       17.9585820518
 Cs        38.6031158188       38.5952354295       28.4602752890
 Cl        36.3870644051       23.1695092455       36.3834992149
 Cs        12.0554120633        7.3931123838        7.3924920116
 Cs        12.4074565269        7.2717771385       17.6692096528
 Cs        12.4464144426        7.2912209055       28.2851932766
 Cs        12.4308260030        7.4030798690       38.6019952007
 Cs        12.4253065324       17.6923609741        7.3095909764
 Cs        12.4003422111       17.6992333402       17.7045772663
 Cs        12.4127982403       17.7132774221       28.3237037754
 Cs        12.4609319048       17.7284085487       38.6869547477
 Cs        12.4620774842       28.2525350630        7.2968334724
 Cs        12.4093643049       28.3204783482       17.7125708093
 Cs        12.3835823879       28.3483516720       28.3435722935
 Cs        12.3944744183       28.3315257944       38.7407558402
 Cs        12.4667114114       38.6143819260        7.3885048747
 Cs        12.4329314552       38.6924191661       17.7174239848
 Cs        12.3859585132       38.7119856934       28.3282156370
 Cs        11.9955979942       38.6196595208       38.6270988958
 Cl        25.6698129938       33.8240887523       36.3782347391
 Cs        22.9869076738        7.2475366561       17.6753315052
 Cs        22.9829335448        7.2343054484       28.3622800703
 Cl         9.6485106651       36.3395194633       22.8664524801
 Cs        23.0041868544       17.6630741564        7.2498917614
 Cs        23.0101435092       17.6744210656       17.6759413874
 Cs        23.0092620626       17.6729638012       28.3313800719
 Cs        23.0161782480       17.6475296696       38.7684943764
 Cs        23.0314261250       28.3233654462        7.2376469026
 Cs        23.0206805367       28.3277297193       17.6640256768
 Cs        22.9876558054       28.3427645371       28.3305947244
 Cs        22.9636390726       28.2771822908       38.7400434242
 Cl        25.6290636775       33.7764785136       15.0344181970
 Cs        22.9992348538       38.7609654117       17.6304719800
 Cs        22.9569329566       38.7485296862       28.2483793501
 Cs        22.8263993884       38.6577735627       38.6526582927
 Cs        33.5300716826        7.3927320143        7.3927819735
 Cs        33.5499011752        7.3258433038       17.7206512819
 Cs        33.5901922928        7.2712030389       28.3335238715
 Cs        33.9433147862        7.3913489649       38.6125866972
 Cs        33.5555302497       17.7321001087        7.3069975308
 Cs        33.5975108613       17.7127706971       17.7125354567
 Cs        33.6167242700       17.6909748532       28.3372808482
 Cs        33.6028420380       17.6574743166       38.7135080504
 Cs        33.5921645614       28.3407844325        7.2698329000
 Cs        33.6013499555       28.3347130045       17.6695182304
 Cs        33.5936700621       28.3260269651       28.2918054980
 Cs        33.5648155754       28.2904783767       38.6804313841
 Cs        33.9462084086       38.6130190509        7.3911117710
 Cs        33.5777833807       38.7411441787       17.6464271474
 Cs        33.5736510919       38.6930972840       28.2712978934
 Cs        33.5985080043       38.6082099932       38.6166043120
 Cl        14.9944290491       22.9384206680       20.3608327836
 Cl        15.0216448676       22.9409712262       31.0024542446
 Cl        25.6698244414       39.2554434513       31.0917730499
 Cl        20.0270827588        9.9514595552        6.7379397137
 Cl        20.3601854408        9.6788002305       17.5369185907
 Cl        20.3453918385        9.6736954887       28.2144943168
 Cl        20.1141498137        9.7404160277       38.9257089879
 Cl        20.3539054448       20.3383254753        6.6216283519
 Cl        20.3483894633       20.3597887021       17.5262816312
 Cl        20.3451991669       20.3596226621       28.2638970388
 Cl        20.3367196039       20.3303075626       38.9489929834
 Cl        15.0164439640        9.6817412798       12.2493194754
 Cl        14.9746315007        9.6429264611       22.9272262893
 Cl        15.0283847373        9.6900904470       33.5378957004
 Cl        28.2331481535       20.3396034712        9.6731532745
 Cl        15.0587383055       20.3567033482       12.2479149010
 Cs        12.4305056714       12.4371287162        7.2678034211
 Cs        12.4144666834       12.3986665512       17.6884593857
 Cs        12.4378569949       12.4081244566       28.2682975694
 Cs        12.4345386797       12.4330854575       38.6414427813
 Cs        12.2891857347       22.9364285698        7.2642957501
 Cs        12.3896685723       22.9868738170       17.7009361190
 Cs        12.3876572343       22.9927287939       28.3518619697
 Cs        12.1978235753       23.0653966713       38.7761639835
 Cs        12.4324250462       33.5723087507        7.3243877416
 Cs        12.4180778128       33.5777413718       17.7393845676
 Cs        12.3780954503       33.6010202653       28.3260136264
 Cs        12.3835301270       33.5584181753       38.7381805502
 Cl        15.0253349931       33.5502733207        9.6985369982
 Cl        15.0017080207       33.5832977337       20.3551880254
 Cl        15.0064725602       33.6324987220       31.0069916052
 Cl        36.2287079014        7.1155070835        9.7853697635
 Cs        22.8758281857       12.1855756514        7.2229298080
 Cs        23.0191710242       12.3884706799       17.6662677691
 Cs        23.0181562043       12.3817657236       28.3122959757
 Cs        23.1263236244       12.1573836490       38.7838224620
 Cs        23.0316890396       23.0199241323        7.2338364059
 Cs        23.0152389687       23.0187844322       17.6679208311
 Cs        22.9933080786       22.9977098184       28.3331974528
 Cs        23.0318807141       22.9382956169       38.7807760354
 Cs        23.1187728527       33.8159078244        7.2171645765
 Cs        23.0106068681       33.6260820964       17.6486465280
 Cs        23.0219571687       33.6132423706       28.3227372998
 Cs        23.0012664419       33.5612698412       38.7363205947
 Cl         9.6687168001       20.3594680838       28.2495502568
 Cl         9.7189672490       20.1244606246       38.8921393802
 Cl        14.9877144605        9.6199974444        7.0913095408
 Cl        15.0264411921        9.7082532325       17.7823831847
 Cs        33.5697807901       12.4352824283        7.3026787656
 Cs        33.5786942831       12.4236128279       17.7518747519
 Cs        33.5986392142       12.3992852034       28.3569076164
 Cs        33.5830398336       12.4143192365       38.6984847414
 Cs        33.8169958795       23.1236156442        7.2236668509
 Cs        33.6081915435       22.9930653579       17.6653146624
 Cs        33.6194916318       22.9908114847       28.3146031329
 Cs        33.8535472075       22.8568105246       38.7860990555
 Cs        33.5902514796       33.5875527029        7.2824836779
 Cs        33.6039720519       33.5860844789       17.6756382086
 Cs        33.5895905492       33.5723748869       28.2462537582
 Cs        33.6255915963       33.5566980229       38.6604339192
 Cl        25.6196437784       12.2460159198        9.7007855689
 Cl        25.6761343583       12.2125352556       20.3563227797
 Cl        25.6616763938       12.2225103044       30.9713698389
 Cl         9.7613947140       12.4847610783        9.7630293388
 Cl        14.9942051165       20.3600748921       22.9406297901
 Cl        15.0278606621       20.3558169209       33.5723489654
 Cl        20.3402223764       36.3836209249       22.8621559326
 Cl        15.0191114010       30.9909445917       12.2520543800
 Cl        14.9986046425       31.0032406405       22.9439417478
 Cl        15.0059451357       31.0370497471       33.5845361992
 Cl        30.9892917454       33.5742323493       15.0186564283
 Cl        25.6656224686       22.8768095224        9.6634634814
 Cl        25.6737946592       22.9338239654       20.3638519829
 Cl        25.6616394995       22.8855235772       31.0292561460
 Cl        36.2553706186        7.1060550307       20.1321182416
 Cl        25.6188297656        9.7074787313       12.2397683671
 Cl        25.6729287006        9.6579778823       22.9174455132
 Cl        25.6887409722        9.7009971661       33.5466823803
 Cl        30.9756844415       33.5795451810       25.6648985630
 Cl        25.6615911577       20.3330496837       12.2151512402
 Cs         7.3922183127       12.0448022291        7.3946004275
 Cs         7.2589782091       12.4326207541       17.6601416840
 Cs         7.2932786180       12.4628292629       28.2553048490
 Cs         7.4040145927       12.4358455959       38.6010948489
 Cl        28.2545351892        9.6793046545       20.3542481491
 Cs         7.2391982717       23.0201370074       17.6583284296
 Cs         7.2324876006       23.0260753130       28.3297265459
 Cl        36.2927035709       12.4552869880       25.6803614969
 Cs         7.3994557310       33.5656541646        7.3981909505
 Cs         7.3054261366       33.5597567052       17.7156477582
 Cs         7.2375367334       33.5923149916       28.3287585990
 Cs         7.3531603934       33.9429669623       38.6125820294
 Cl        25.6767920238       33.5774149685        9.7143842427
 Cl        25.6836053198       33.5960398051       20.3418321093
 Cl        25.6536239874       33.6381289574       31.0378314439
 Cl        30.9676272210       33.5652118510       36.3262369198
 Cs        17.6572482072       12.4318838763        7.2625920174
 Cs        17.6729946040       12.3919629165       17.6765832498
 Cs        17.6822533950       12.4068696252       28.2897664604
 Cs        17.7024452334       12.4435074852       38.6848986001
 Cs        17.6553301904       23.0170295540        7.2365883677
 Cs        17.6716586922       23.0121017471       17.6735539259
 Cs        17.6750161059       23.0139901580       28.3340640836
 Cs        17.6057095436       22.9471121576       38.7652902533
 Cs        17.7225921511       33.5555940606        7.3036811579
 Cs        17.6862730425       33.6031947435       17.6689158570
 Cs        17.6508755573       33.6100102536       28.3164836080
 Cs        17.6394479879       33.5366972550       38.7629337224
 Cl        15.0314753214        9.7072381043       28.4181381882
 Cl        14.9523118195        9.6737534074       39.2354158140
 Cl        15.0518956416       20.3313150977        7.0676852418
 Cl        15.0102787853       20.3547283214       17.7772641349
 Cs        28.2775098120       12.4441373500        7.3046917097
 Cs        28.2959868268       12.4066070655       17.7148876967
 Cs        28.3128817246       12.3832500203       28.3349259014
 Cs        28.3367503651       12.3960136249       38.7111962191
 Cs        28.3246929260       23.0243136112        7.2448878185
 Cs        28.3252942743       23.0138652095       17.6846485028
 Cs        28.3374932188       22.9904702461       28.3237368117
 Cs        28.3281982898       22.9500498855       38.7761732144
 Cs        28.3366796539       33.5925686800        7.2623814045
 Cs        28.3111550699       33.6048525943       17.6876145861
 Cs        28.3220371177       33.5969582743       28.2953957891
 Cs        28.3358917333       33.5547748509       38.7196893768
 Cl        36.2318296641       12.2459987455        9.7705119608
 Cl        36.2962819433       12.2410999972       20.3783607307
 Cl        36.3080026145       12.2423236598       30.9880700663
 Cl         7.0563327230       14.9776939022        9.6227776234
 Cs        38.6121112954       12.4745081054        7.3952607080
 Cs        38.6723987152       12.4553937031       17.7227524411
 Cs        38.7239202321       12.4115417330       28.3344458642
 Cs        38.6094975906       12.0585619802       38.6130265068
 Cl        25.6786123145       33.7942994015       25.6666583470
 Cs        38.7514482937       23.0204286508       17.6726819289
 Cs        38.7623203832       23.0154707190       28.3533587940
 Cl        36.3145192590       12.4624065922       15.0331879424
 Cs        38.6097879007       33.9455011389        7.3929118658
 Cs        38.7317048181       33.5909286567       17.6624554576
 Cs        38.7063373248       33.5532780477       28.2717772820
 Cs        38.6570036414       33.5662294195       38.5890065117
 Cl        36.3399205719       22.8719136800        9.6602636807
 Cl        36.3395059404       22.8865900487       20.3464212892
 Cl        36.3652161324       22.8807137945       31.0189352291
 Cl         9.7671787910        9.7627593110       12.4597798073
 Cs         7.2666712126       12.4382551897       12.4315186904
 Cs         7.2228394563       12.1975349707       22.8995642512
 Cs         7.3252580730       12.4256592786       33.5618480418
 Cl         9.6488369573        9.6360296073       23.1441261783
 Cs         7.2658357753       22.9327595468       12.2856337106
 Cs         7.2329757472       23.0199255910       23.0256023013
 Cs         7.2079204612       23.1032538824       33.8134342467
 Cl         9.7668643009        9.7697085456       33.7569170789
 Cs         7.3295079605       33.5694931884       12.4289430638
 Cs         7.2131673174       33.8052860670       23.0952537526
 Cs         7.2417865093       33.5881494699       33.5880825350
 Cl        28.2410869189       20.3610654858       20.3628188297
 Cl        36.2348210843       33.5501362645        9.7666708161
 Cl        36.2817629168       33.5797268025       20.3365295161
 Cl        36.3131591880       33.5565114007       30.9824883686
 Cl         9.6905314946       20.3368330062       12.5123627196
 Cs        17.6883935749       12.3997561387       12.4150939997
 Cs        17.6583699608       12.3860036428       23.0201512238
 Cs        17.7150369019       12.4261606638       33.5894061348
 Cl         9.6602297036       20.3534503882       23.1123472639
 Cs        17.7003374841       22.9849594727       12.3888759950
 Cs        17.6638348929       23.0235025476       23.0255796002
 Cs        17.6798034763       23.0051108959       33.6189629549
 Cl         9.6684965196       20.3754877039       33.7576036854
 Cs        17.7489855379       33.5731328575       12.4149047958
 Cs        17.6407915000       33.6325767121       22.9810828533
 Cs        17.6569598712       33.5992945322       33.5814058676
 Cl        28.2372462438       20.3376317890       31.0201934128
 Cl        15.0266669029       20.3638244902       28.4258317991
 Cl        15.0257229183       20.2916091821       39.2676202330
 Cl        15.0208602245       30.9834603558        7.0904601017
 Cl        15.0074396648       30.9900998822       17.7716558068
 Cs        28.2301559954       12.4248599935       12.4277172764
 Cs        28.3172215131       12.3816570651       22.9975246681
 Cs        28.3378288245       12.3927292205       33.5925713093
 Cl        36.3662634594        7.0824979215       31.0156147787
 Cs        28.3424760727       22.9876791617       12.3912757022
 Cs        28.3317955888       23.0114270326       23.0136559617
 Cs        28.3607418561       22.9949151179       33.6269443520
 Cl         9.6879749264       12.2166703825       15.0188137943
 Cs        28.3247476021       33.5844830481       12.3940894734
 Cs        28.3378338589       33.6167138932       22.9939430705
 Cs        28.3051305371       33.5873957365       33.5850829020
 Cl         9.7099245058       12.1933617307       25.6258228219
 Cl        12.4565708184        9.7618156873        9.7691801557
 Cl        12.4286808284        9.7190538328       20.3368366822
 Cl        12.4538601367        9.6987002528       30.9708253696
 Cl         9.7735717800       12.2627521520       36.2248883030
 Cs        38.6737005983       12.4416796674       12.4309155277
 Cs        38.7695513279       12.1903298507       23.1186398265
 Cs        38.7133418871       12.4100473722       33.5877844282
 Cl        15.0209148309       15.0113208143       12.4429760755
 Cs        38.7716491128       23.1221939415       12.1847640390
 Cs        38.7611276266       23.0292078782       22.9770394324
 Cs        38.7879103190       22.8948984131       33.7873722539
 Cl        15.0149510114       15.0346225928       23.0773882324
 Cs        38.7135786789       33.5855486518       12.4112835976
 Cs        38.7873003428       33.8223331738       22.8711158143
 Cs        38.7102577666       33.5686257395       33.5489122656
 Cl        15.0331068751       15.0168885258       33.7399070784
 Cl        12.5094397967       20.3356701943        9.6891739090
 Cl        12.4253735797       20.3538767325       20.3571981059
 Cl        12.4552051020       20.3586174267       30.9900606229
 Cl         9.7515009765        9.7460694837       17.5388861019
 Cs         7.3899957110        7.3941202845       12.0596857320
 Cl         9.7688093127       36.2351305221       12.2433719915
 Cs         7.3866903206        7.3912782256       33.5382527134
 Cl        15.0140536256       25.6556748552       12.4440358312
 Cs         7.3105646866       17.6930725973       12.4243995886
 Cs         7.2358427074       17.6394076181       23.0363713041
 Cs         7.3051423341       17.7123991014       33.5479915846
 Cl        14.9977258536       25.6932190251       23.1161347069
 Cs         7.3009742224       28.2543222688       12.4618312803
 Cs         7.2363024890       28.3305957701       23.0262080328
 Cs         7.2407050610       28.3252645201       33.5965900012
 Cl        15.0189480316       25.6637937088       33.7788006403
 Cs         7.3893613042       38.6108495712       12.4678685163
 Cl        25.6522612963       28.5042252325       31.0459345681
 Cs         7.3614495947       38.6106478710       33.9429986028
 Cl        28.2318455333       30.9793562232        9.7032900198
 Cs        17.6676750542        7.2712542375       12.4112386858
 Cs        17.6798895319        7.2323100072       22.9779499530
 Cs        17.7452855935        7.3007869999       33.5246540618
 Cl        15.0253242225       36.3139553057       12.4667472259
 Cs        17.7062285589       17.6987991150       12.4006815539
 Cs        17.6721072130       17.6756305258       23.0147149366
 Cs        17.7082374556       17.6695320483       33.5898713949
 Cl        14.9624027626       36.3638667361       23.0848164522
 Cs        17.7150075091       28.3185143002       12.4038698740
 Cs        17.6620271423       28.3297579171       23.0180406992
 Cs        17.6661730980       28.3048674273       33.6056432138
 Cl        15.0368230206       36.3391913109       33.7958273673
 Cs        17.7183131969       38.6958920459       12.4272708564
 Cs        17.6513729771       38.7655934272       22.9885567008
 Cs        17.6543742423       38.7200819939       33.5588490511
 Cl        28.2551444914       31.0068114429       20.3468372743
 Cs        28.2748191320        7.3143501097       12.4481951686
 Cs        28.3447229353        7.2506626360       23.0035009597
 Cs        28.3359153489        7.2616440787       33.5876633050
 Cl        20.3776461199       15.0420225771       12.2308100874
 Cs        28.2872050449       17.7121141756       12.4093687745
 Cs        28.3169755265       17.6910446415       23.0082524363
 Cs        28.3368373892       17.6559791446       33.6080140241
 Cl         9.6697828183       22.9047159891       15.0452756290
 Cs        28.3366039315       28.3369087111       12.3959190205
 Cs        28.3265134387       28.3346268674       22.9999432750
 Cs        28.3308592663       28.3094628634       33.6154718424
 Cl         9.6661962707       22.9074520039       25.6814689217
 Cs        28.3497099564       38.7395105821       12.4190380414
 Cs        28.3436692166       38.7526608980       22.9757793094
 Cs        28.3243282522       38.7230343099       33.5436991655
 Cl         9.6273333744       22.8429932941       36.3572715917
 Cs        38.5984099373        7.4044849152       12.4434370754
 Cl        25.9733023856       39.2628789971        9.9423798829
 Cs        38.6110914732        7.3914190215       33.9457127091
 Cl        25.6371327818       15.0310138918       12.4582930509
 Cs        38.6872335220       17.7293366658       12.4472799327
 Cs        38.7437250533       17.6598798146       22.9994269082
 Cs        38.7330551371       17.6625015863       33.5852219742
 Cl        25.6490147351       15.0095057907       23.0945950235
 Cs        38.7246396029       28.3403888717       12.4104849934
 Cs        38.7648255577       28.3185562190       22.9665860606
 Cs        38.7178188919       28.2515233795       33.5209553551
 Cl        25.6210515252       15.0096676038       33.7719861085
 Cs        38.6101599095       38.6133729767       12.0557503600
 Cl        28.2560165030        9.7071400946       30.9621749990
 Cs        38.6557746347       38.6141781220       33.5262808107
 Cl        28.2274841504       31.0354513952       31.0290083708
 Cs        12.4129621680        7.2837785337       12.4153273150
 Cs        12.1700102147        7.2099420236       22.8714238708
 Cs        12.4272123350        7.3267063531       33.5617552975
 Cl        25.6693365243       25.6703268459       12.4300859120
 Cs        12.3959296307       17.7238536347       12.3948904433
 Cs        12.3863950663       17.6992963174       22.9932894385
 Cs        12.4113849582       17.7114305229       33.5695677342
 Cl        25.6599154727       25.6906127685       23.1045683580
 Cs        12.4117704242       28.2942436700       12.4087847539
 Cs        12.3812755366       28.3520823985       22.9957363957
 Cs        12.3770731271       28.3292159366       33.5907991627
 Cl        25.6583371987       25.6796295243       33.8406650785
 Cs        12.4288503964       38.6990366757       12.4256461416
 Cs        12.1672603937       38.7761797907       23.1002264977
 Cs        12.3797969630       38.7009184130       33.5730844189
 Cl        20.3517221252       30.9777400632       12.4176709851
 Cs        22.8805238261        7.2294461009       12.1799830760
 Cs        22.9787805247        7.2335865517       22.9735285211
 Cs        23.0898847123        7.2187979109       33.7817095655
 Cl        25.6672909822       36.2899175161       12.4478661626
 Cs        23.0045268315       17.6797655829       12.3909140370
 Cs        23.0147080975       17.6681175526       23.0220153148
 Cs        22.9875145744       17.6428196535       33.6154230174
 Cl        25.6790366894       36.3455683081       23.0851791119
 Cs        22.9947342588       28.3440977566       12.3829081249
 Cs        23.0180821468       28.3352408960       23.0115159057
 Cs        22.9825711945       28.3197307467       33.6304642384
 Cl        25.6646627066       36.3787245137       33.8196129320
 Cs        23.1282707956       38.7800231341       12.1621879635
 Cs        23.0018270075       38.7700695497       22.9832409572
 Cs        22.9967450439       38.7336755198       33.5586741897
 Cl        20.3444949172       31.0308719682       23.1350617532
 Cs        33.5606952229        7.3279976918       12.4293859575
 Cs        33.8096405782        7.2281150490       23.1174138001
 Cs        33.5913494069        7.2825574662       33.5894716483
 Cl        20.3424940226       14.9884402506       22.9259705470