    1116
 i =       82, E =    -43122.8856781288
 Ga         9.1050438863       11.6604372673       19.8928178460
 Ga         9.3429859993       14.4569108087       17.1642415591
 Ga         9.0259757087       14.5410951966       22.8443220701
 Ga         9.3430786589       17.1683911574       14.4596231177
 Ga         9.2627767620       17.4031436490       20.0567629343
 Ga         9.0247618683       17.4107796788       25.7210926235
 Ga         9.1049639284       19.8929238375       11.6604608504
 Ga         9.2656675317       20.1170186699       17.4023543291
 Ga         9.2649194417       20.2140085161       22.9305932146
 Ga         9.0228494065       20.2798383145       28.5924065299
 Ga         9.0261012031       22.8466076181       14.5391288746
 Ga         9.2623873896       22.9296586382       20.2732311336
 Ga         9.2654237698       23.0827433825       25.7915426144
 Ga         9.0254638404       23.1553220701       31.4623034552
 Ga         9.0246802519       25.7191922235       17.4129877284
 Ga         9.2647438619       25.7943009079       23.0865184340
 Ga         9.2618045465       25.9476371947       28.6600969757
 Ga         9.1052463323       26.1109723916       34.3389180121
 Ga         9.0226309439       28.5927728127       20.2801554666
 Ga         9.2619566501       28.6609306344       25.9480644730
 Ga         9.3411862741       28.8958519482       31.5507450036
 Ga         9.0251090949       31.4627618502       23.1552974909
 Ga         9.3414221582       31.5512422963       28.8956444773
 Ga         9.1055171921       34.3392737087       26.1102551995
 Ga        11.6592870050        9.1064383225       19.8930533541
 Ga        11.7391051678       11.7442589993       17.2522996916
 Ga        11.7451661252       11.7473684179       22.8530774837
 Ga        11.6546803250       14.6300783038       14.6305432795
 Ga        11.8260516025       14.5402449788       20.1384240655
 Ga        11.7426543011       14.5391554128       25.7335754623
 Ga        11.7394685713       17.2524335224       11.7443822936
 Ga        11.9095637871       17.3488222380       17.3422126841
 Ga        11.8269887677       17.3421178981       23.0036367217
 Ga        11.7407921958       17.4013353745       28.5999579848
 Ga        11.6598249475       19.8931774848        9.1065580409
 Ga        11.8251489804       20.1373657623       14.5407885011
 Ga        11.9740804001       20.2003777689       20.2013006970
 Ga        11.8265728553       20.1972552190       25.8596065776
 Ga        11.7409442680       20.2668912821       31.4614237438
 Ga        11.7442550512       22.8527271114       11.7465314108
 Ga        11.8266039116       23.0056033620       17.3451851038
 Ga        11.9688632159       23.0055209284       23.0088819202
 Ga        11.8263529309       23.0031759387       28.6649627391
 Ga        11.7415480895       23.1504718920       34.2579437713
 Ga        11.7417338775       25.7337665634       14.5385149364
 Ga        11.8257832857       25.8594348544       20.1954231416
 Ga        11.9666742760       25.8619515212       25.8628168994
 Ga        11.8248705235       25.8677568332       31.4661005407
 Ga        11.6609825993       26.1108762222       36.8945076511
 Ga        11.7405020722       28.6012577713       17.4009672560
 Ga        11.8237480738       28.6678982688       23.0040703891
 Ga        11.9118864317       28.6640784808       28.6641817418
 Ga        11.7419365409       28.7523832138       34.2578975803
 Ga        11.7407597067       31.4630929387       20.2675718348
 Ga        11.8246446794       31.4663309432       25.8673077744
 Ga        11.6585877372       31.3760503021       31.3753870142
 Ga        11.7434066481       34.2573306562       23.1454601404
 Ga        11.7423172141       34.2581044414       28.7519998782
 Ga        11.6597577128       36.8942768608       26.1076695652
 Ga        14.4523584421        9.3444781396       17.1676852565
 Ga        14.5402049119        9.0312028903       22.8480167326
 Ga        14.6226837688       11.6596910066       14.6890378985
 Ga        14.5331276311       11.8313359795       20.1403894663
 Ga        14.5399177741       11.7485674060       25.7300530134
 Ga        14.6230778020       14.6888835162       11.6602728430
 Ga        14.5993920513       14.6153681218       17.4129656002
 Ga        14.5414010296       14.6063691037       23.0065215401
 Ga        14.5340324481       14.5399074604       28.6008326704
 Ga        14.4533875560       17.1681677541        9.3453842985
 Ga        14.5992907144       17.4111246473       14.6141768606
 Ga        14.6205192291       17.4086494922       20.2157048333
 Ga        14.5427004778       17.3433849251       25.8667821747
 Ga        14.5352422972       17.4022613009       31.4600375063
 Ga        14.5349919104       20.1418133223       11.8353922142
 Ga        14.6160755359       20.2134253055       17.4110067480
 Ga        14.6243850083       20.1909836321       23.0690101925
 Ga        14.5458212693       20.1394798486       28.6670058432
 Ga        14.5354558965       20.2701284082       34.2588441714
 Ga        14.5397153499       22.8471912986        9.0312544931
 Ga        14.5389624448       23.0043983220       14.6031629291
 Ga        14.6193664350       23.0699219846       20.1960532003
 Ga        14.6195826079       22.9973953069       25.8105836602
 Ga        14.5417483419       22.9980118549       31.4560233207
 Ga        14.5371150674       23.1554882879       36.9747795488
 Ga        14.5374751987       25.7252245883       11.7472003645
 Ga        14.5376912292       25.8690479386       17.3416830317
 Ga        14.6166257939       25.8636486965       22.9974363068
 Ga        14.6160703054       25.7950780076       28.6523588930
 Ga        14.5335436096       25.8674836683       34.1749695197
 Ga        14.5334722973       28.6017792547       14.5399441030
 Ga        14.5434463970       28.6719105173       20.1366809773
 Ga        14.6146896387       28.6571467991       25.7961946329
 Ga        14.6037908817       28.5962605776       31.3954419101
 Ga        14.4493272287       28.8958569607       36.6584329755
 Ga        14.5365961627       31.4611598060       17.3993855672
 Ga        14.5408202330       31.4586091295       22.9937676150
 Ga        14.6010236177       31.3931099996       28.5956236554
 Ga        14.6244906600       31.3758594296       34.3410305469
 Ga        14.5366981357       34.2575811001       20.2094798637
 Ga        14.5334934524       34.1731073649       25.8641440893
 Ga        14.6235585737       34.3451967895       31.3717961929
 Ga        14.5378367683       36.9724155303       23.1524776052
 Ga        14.4527746507       36.6546291546       28.8365571399
 Ga        17.1019464013        9.3465421422       14.4616407592
 Ga        17.3400300070        9.2672278352       20.0604003556
 Ga        17.4113514071        9.0341273158       25.7193106214
 Ga        17.1782396667       11.7447903392       11.7456482678
 Ga        17.3436248030       11.9650226616       17.3415758975
 Ga        17.3290074095       11.8915502259       23.0056506594
 Ga        17.3339953605       11.7460614610       28.6548758694
 Ga        17.1045316050       14.4626751356        9.3495690054
 Ga        17.4084217286       14.6083766461       14.6109434620
 Ga        17.3389811906       14.6318174187       20.2121050913
 Ga        17.3286453513       14.6062114245       25.8702345580
 Ga        17.3312928849       14.5435835757       31.4635287761
 Ga        17.3499866203       17.3449943292       11.9711042700
 Ga        17.4075750891       17.4104539335       17.4177668667
 Ga        17.3962859431       17.4113731426       23.0701740560
 Ga        17.3305021086       17.3404496939       28.6710934400
 Ga        17.3365431883       17.4051973809       34.2569436750
 Ga        17.3393099803       20.0591779830        9.2685584504
 Ga        17.3401894228       20.2113976403       14.6830645058
 Ga        17.4011210225       20.2073167887       20.2100903196
 Ga        17.3990739323       20.1938639514       25.8684092962
 Ga        17.3282840704       20.1940418045       31.4529234002
 Ga        17.4077275620       20.2796497982       36.9770960499
 Ga        17.3255569211       23.0009822913       11.8937912758
 Ga        17.3413654562       23.0702879594       17.4157043870
 Ga        17.4049529561       23.0021622726       23.0015095055
 Ga        17.3394364184       22.9947114065       28.6029021299
 Ga        17.3311678285       23.0070136842       34.1777906160
 Ga        17.4112500412       25.7175749780        9.0333210612
 Ga        17.3274953810       25.8684117868       14.6065222661
 Ga        17.3421991606       25.8649713740       20.1960127667
 Ga        17.4059181979       25.7964582193       25.7987523358
 Ga        17.3463069034       25.7940812411       31.3813274859
 Ga        17.3396146436       25.9480211809       36.7383987400
 Ga        17.3386758581       28.5951718916       11.7447716979
 Ga        17.3303273010       28.6750348271       17.3408341535
 Ga        17.3394453563       28.6028482902       22.9921048401
 Ga        17.4108493086       28.5885487593       28.5888898283
 Ga        17.3360198173       28.6635983959       34.0867624303
 Ga        17.3317294915       31.4608083622       14.5396925528
 Ga        17.3312494730       31.4509217813       20.1928692312
 Ga        17.3445374596       31.3809038809       25.7929738754
 Ga        17.4042720346       31.3932447028       31.3978502854
 Ga        17.1044367325       31.5506699255       36.6585878223
 Ga        17.3976498229       34.2573025099       17.4039028899
 Ga        17.3296724786       34.1753546204       22.9998970611
 Ga        17.3405706491       34.0333302280       28.6614082803
 Ga        17.2473136494       34.2581756718       34.2575328654
 Ga        17.4066433081       36.9767597264       20.2805782365
 Ga        17.3415106569       36.7369857842       25.9474009522
 Ga        17.1033071456       36.6565271040       31.5450536818
 Ga        19.8265849548        9.1070769684       11.6631043666
 Ga        20.0499894654        9.2704264947       17.3996260043
 Ga        20.2077654595        9.3324381238       22.9275412483
 Ga        20.2759080206        9.0339706014       28.5856093178
 Ga        19.8199299005       11.6633502684        9.1107310217
 Ga        20.1293179768       11.8218441969       14.5395778649
 Ga        20.1359857077       11.9772912219       20.1995062557
 Ga        20.1283436752       11.8923121437       25.8667645608
 Ga        20.1994907644       11.7428896509       31.4605817503
 Ga        20.1246530980       14.5377564573       11.8805434666
 Ga        20.2061223219       14.6231737017       17.4033803094
 Ga        20.1366589634       14.6859534945       23.0201214334
 Ga        20.1240290279       14.5518438707       28.6713775454
 Ga        20.1976436418       14.5434060550       34.2595128429
 Ga        20.0438753078       17.3960056972        9.2748240262
 Ga        20.1995572954       17.4025515931       14.6837718933
 Ga        20.1994502953       17.4098757917       20.2079013325
 Ga        20.1914667540       17.4097061299       25.8694076145
 Ga        20.1228067942       17.3394609975       31.4625996194
 Ga        20.2754647110       17.4111297953       36.9732098063
 Ga        20.1307015270       20.1967784904       11.9869191098
 Ga        20.1949149940       20.2104211398       17.4194605609
 Ga        20.1982777844       20.2017372539       23.0077261714
 Ga        20.1306034266       20.1973428915       28.6603258551
 Ga        20.1366860300       20.1929827887       34.1761373466
 Ga        20.2097563614       22.9239831171        9.3360169260
 Ga        20.1306682217       23.0105397367       14.6931175588
 Ga        20.1938468265       23.0098787455       20.2011074519
 Ga        20.1994107771       22.9975630351       25.8022966216
 Ga        20.1338191576       23.0036907460       31.3781314040
 Ga        20.2075343230       23.0834016775       36.7345792792
 Ga        20.1308183790       25.8083213060       11.8905359312
 Ga        20.1308961313       25.8638901940       17.4130038287
 Ga        20.1976876234       25.8004011963       22.9978609029
 Ga        20.1996013610       25.7950994820       28.5963340741
 Ga        20.1381449259       25.8619642388       34.0321104846
 Ga        20.2786447001       28.5847944599        9.0382213989
 Ga        20.1263755412       28.6748170091       14.5473941040
 Ga        20.1287917524       28.6019124964       20.1937286695
 Ga        20.2007156089       28.5932782765       25.7967480473
 Ga        20.2048059227       28.6553538672       31.3820292232
 Ga        20.0521581825       28.6604194164       36.7383018075
 Ga        20.2039405011       31.4574427035       11.7436881617
 Ga        20.1283282351       31.4560764247       17.3390860721
 Ga        20.1344238367       31.3228907755       22.9977328916
 Ga        20.2067664130       31.3818652892       28.6496284112
 Ga        20.1320866865       31.4663769991       34.1752728935
 Ga        20.2050577937       34.2567587757       14.5404938203
 Ga        20.1409971233       34.1718307721       20.1963036754
 Ga        20.1392906013       34.0297500728       25.8056788514
 Ga        20.1315634716       34.1759519388       31.4644689640
 Ga        19.8889322413       34.3390973638       36.8945098625
 Ga        20.2793777922       36.9739868127       17.4108796121
 Ga        20.2100490808       36.7365359407       23.0784079665
 Ga        20.0500606900       36.7321639973       28.6564426324
 Ga        19.8889558128       36.8947333020       34.3382573641
 Ga        22.8401577504        9.0304977788       14.5403575816
 Ga        22.9172027717        9.3303187584       20.2105515303
 Ga        23.0634365753        9.3298359629       25.7884833137
 Ga        23.0821065043        9.0331906612       31.4645829070
 Ga        22.8424993465       11.7416396785       11.7415658181
 Ga        22.9951478581       11.8769965059       17.3355828379
 Ga        22.9915797215       11.9827644792       23.0089592119
 Ga        22.9895997096       11.8910987169       28.6709620155
 Ga        23.0789342315       11.7412037017       34.2592077985
 Ga        22.7733882079       14.5409101279        9.0332485641
 Ga        22.9977054378       14.5444334372       14.5506624219
 Ga        23.0003487097       14.6211568361       20.1968393611
 Ga        22.9837187898       14.6871981107       25.8646432039
 Ga        22.9286953746       14.5520219705       31.4606013460
 Ga        23.1436254518       14.5395038194       36.9740744776
 Ga        22.9346417046       17.3343162663       11.8944420500
 Ga        23.0055650810       17.3948877085       17.4101115303
 Ga        22.9955849060       17.4100057151       23.0051283158
 Ga        22.9265031496       17.4101255433       28.6630232892
 Ga        22.9869963188       17.3375778837       34.1701210014
 Ga        22.9140554452       20.2118765716        9.3396042463
 Ga        23.0001484855       20.1951148505       14.6847748950
 Ga        23.0001435737       20.2015939881       20.2044737338
 Ga        22.9929599414       20.2019697538       25.8057506185
 Ga        22.9271632488       20.1958411956       31.3810893274
 Ga        23.0664020320       20.2204898244       36.7356779313
 Ga        22.9889780568       23.0007287187       12.0492972728
 Ga        22.9920543959       23.0055330961       17.4157133345
 Ga        22.9987355832       23.0017133777       23.0018380831
 Ga        22.9969035320       23.0030888628       28.5962401665
 Ga        22.9902356947       23.0096675118       34.0310776306
 Ga        23.0640311244       25.7858493497        9.3386669684
 Ga        22.9249461201       25.8649955854       14.6928405638
 Ga        22.9920078535       25.8036907311       20.2017030848
 Ga        23.0033276628       25.8010668388       25.8008509838
 Ga        22.9968658240       25.8624198836       31.3801713032
 Ga        22.9174031666       25.7920255530       36.7345374850
 Ga        22.9917157446       28.6676492724       11.8885474362
 Ga        22.9249199198       28.6624387900       17.4096849432
 Ga        22.9987812097       28.5957018331       23.0034038572
 Ga        23.0037402457       28.6027842188       28.6025434766
 Ga        22.9931899933       28.6686231345       34.1778857834
 Ga        23.1455800529       31.4538140825        9.0306437166
 Ga        22.9881087544       31.4600420798       14.5510256384
 Ga        22.9252009939       31.3783601961       20.1918993574
 Ga        23.0004191619       31.3804840227       25.8600495340
 Ga        23.0002996884       31.4565481853       31.4557258850
 Ga        22.8442067964       31.4629079298       36.9749078056
 Ga        23.0816718381       34.2572641609       11.7454722263
 Ga        22.9952784901       34.1729771054       17.3367632513
 Ga        22.9888956522       34.0294170288       23.0049542385
 Ga        22.9935268923       34.1772680121       28.6630434991
 Ga        22.8487771534       34.2581469384       34.2580239729
 Ga        23.1513766416       36.9710778067       14.5385833660
 Ga        23.0753963039       36.7345886309       20.2105436536
 Ga        22.9160678649       36.7340554174       25.7926702652
 Ga        22.8443281597       36.9743989774       31.4624315595
 Ga        25.7160604529        9.0296755573       17.4115212548
 Ga        25.7848163858        9.2681284473       23.0829789637
 Ga        25.8802895201        9.2648301917       28.6645751296
 Ga        26.0989009850        9.1079569651       34.3380617040
 Ga        25.7291034756       11.7412691817       14.5416689666
 Ga        25.8063110050       11.8298907687       20.1977257495
 Ga        25.7977670381       11.9763910822       25.8601412516
 Ga        25.7977607277       11.8303136178       31.4700935897
 Ga        26.1029004832       11.6604548678       36.8934614681
 Ga        25.7202421089       14.5403458018       11.7455860499
 Ga        25.8086280212       14.5443641105       17.3390228383
 Ga        25.8064178017       14.6182930123       22.9966727551
 Ga        25.7783562525       14.6847073833       28.6615728652
 Ga        25.7999382233       14.5362264827       34.1706483346
 Ga        25.6450495862       17.4066765955        9.0945172698
 Ga        25.8001440264       17.3279446341       14.6046868569
 Ga        25.8074909135       17.3377391934       20.1924648187
 Ga        25.7906702406       17.4113863210       25.8008566624
 Ga        25.7711008358       17.4053155390       31.3836141126
 Ga        25.8819289798       17.3987816709       36.7365245315
 Ga        25.7955907758       20.1324312766       11.9030953654
 Ga        25.8019385037       20.1326747239       17.4130081713
 Ga        25.7954415770       20.2021471781       22.9996295841
 Ga        25.7903297204       20.2082805920       28.5983747504
 Ga        25.7963545144       20.2045792857       34.0268993989
 Ga        25.7172553846       23.0658708959        9.3363486375
 Ga        25.7975274044       22.9918580573       14.6897062681
 Ga        25.7965270023       22.9960799255       20.2039473057
 Ga        25.7996374015       23.0103040878       25.8069104349
 Ga        25.8038239285       23.0712016994       31.3808257214
 Ga        25.7841090180       22.9285884208       36.7343213680
 Ga        25.7914344739       25.8049326321       11.9940338014
 Ga        25.7875856332       25.7987343628       17.4182325713
 Ga        25.7991457885       25.8060806995       23.0099935158
 Ga        25.8045679318       25.8682226236       28.6569445997
 Ga        25.8073946727       25.8616729927       34.1766067008
 Ga        25.9407018688       28.5945596817        9.2686944688
 Ga        25.7818442210       28.6018067813       14.6859976195
 Ga        25.7897358267       28.5957890826       20.2064186477
 Ga        25.8038759341       28.6599790667       25.8650850733
 Ga        25.8068102646       28.6717799493       31.4524892522
 Ga        25.7202967012       28.5920094742       36.9771234037
 Ga        25.8007182651       31.4600176406       11.8295082259
 Ga        25.7832914478       31.3824796571       17.4046990991
 Ga        25.8036782222       31.3789541540       23.0186450631
 Ga        25.8051417179       31.4560760076       28.6688258607
 Ga        25.7289628759       31.4644210300       34.2594497881
 Ga        26.1052058640       34.3388683351        9.1081942736
 Ga        25.8593243405       34.1726241596       14.5346801393
 Ga        25.8024102651       34.0351955676       20.1938848600
 Ga        25.8078266268       34.1748285790       25.8069883449
 Ga        25.7288623179       34.2592611976       31.4638224300
 Ga        26.1103760444       36.8866800491       11.6611000016
 Ga        25.9456896367       36.7352757757       17.3438445852
 Ga        25.7885221501       36.7364433301       22.9214758687
 Ga        25.7214429370       36.9739883494       28.5885106088
 Ga        28.5875148715        9.0264318374       20.2786529947
 Ga        28.5935289156        9.2666696024       25.9503119220
 Ga        28.8272760919        9.3454726819       31.5425033170
 Ga        28.5920917515       11.7435523679       17.4037177244
 Ga        28.6542533195       11.8260069185       23.0016790404
 Ga        28.5941938376       11.9639531960       28.6625740351
 Ga        28.7411425816       11.7480197321       34.2560365008
 Ga        28.5917735554       14.5347370343       14.5426415042
 Ga        28.6522357980       14.5431532873       20.1364022393
 Ga        28.5901499903       14.6179816266       25.7932276683
 Ga        28.5777319175       14.6065383817       31.4027263337
 Ga        28.8262599697       14.4598697191       36.6570031560
 Ga        28.5878282007       17.3365730624       11.7562788294
 Ga        28.6584961346       17.3245607782       17.3410601122
 Ga        28.5884329665       17.3962966859       22.9933022618
 Ga        28.5812085498       17.4129809754       28.5924280578
 Ga        28.5932371834       17.3425575721       34.0938876096
 Ga        28.5070179560       20.2717629170        9.0936110021
 Ga        28.6006197150       20.1256921458       14.6008472296
 Ga        28.5884142817       20.1321009986       20.1948923913
 Ga        28.5828304575       20.2080061144       25.8035136925
 Ga        28.5910063484       20.2156389526       31.3849079237
 Ga        28.5968545855       20.0563723527       36.7363746625
 Ga        28.5927084159       22.9909112128       11.9071142917
 Ga        28.5868012849       22.9275498452       17.4136317233
 Ga        28.5844467521       23.0056619508       23.0075811682
 Ga        28.5866259867       23.0722290471       28.6615870043
 Ga        28.6630702730       23.0053237680       34.1725146491
 Ga        28.5967477939       25.8790663411        9.3354722880
 Ga        28.5890789005       25.7915275657       14.6871086944
 Ga        28.5829314541       25.8008478867       20.2132707934
 Ga        28.5844059527       25.8672707475       25.8678401888
 Ga        28.6585118497       25.8706312968       31.4628056569
 Ga        28.5889728141       25.7226450822       36.9733573500
 Ga        28.5917513818       28.6494296441       11.9732716492
 Ga        28.5814118138       28.5933480656       17.4163086353
 Ga        28.5877868024       28.6572221236       23.0742994301
 Ga        28.6566649986       28.6742445615       28.6719563748
 Ga        28.5948224895       28.6626242334       34.2576741436
 Ga        28.8288807851       31.5348230617        9.3454615091
 Ga        28.5840315929       31.3941554897       14.6140328248
 Ga        28.5915615130       31.3852195022       20.2115985673
 Ga        28.6592071027       31.4626431231       25.8746451136
 Ga        28.5953702329       31.4619708827       31.4632406776
 Ga        28.7455715338       34.1976696072       11.7451350860
 Ga        28.6574484154       34.0859542521       17.3410966840
 Ga        28.6615579429       34.1757783375       23.0041780919
 Ga        28.5926592221       34.2574613892       28.6589735931
 Ga        28.8954675433       36.6530747385       14.4462096861
 Ga        28.6538238211       36.7359059354       20.0534656676
 Ga        28.5880138697       36.9720376917       25.7243323098
 Ga        31.4572183758        9.0255376552       23.1572726493
 Ga        31.5309795508        9.3473210409       28.8350430117
 Ga        31.4591379977       11.7416721364       20.2695464259
 Ga        31.4457785527       11.8205681937       25.8654493170
 Ga        31.3085758863       11.6580439287       31.3691489032
 Ga        31.4580718216       14.5352380949       17.4038606865
 Ga        31.3898134416       14.5400149860       22.9961253401
 Ga        31.3815694254       14.6058169476       28.5978820308
 Ga        31.3067124882       14.6911732921       34.3435897327
 Ga        31.4543196038       17.3326317541       14.5414278335
 Ga        31.3926338302       17.3298505464       20.1965694422
 Ga        31.3110929785       17.3465262205       25.7976984107
 Ga        31.3855428969       17.4095789814       31.3995795976
 Ga        31.5386177760       17.1675272769       36.6565179394
 Ga        31.3788633078       20.1990464222       11.7527935332
 Ga        31.3953430723       20.1258395055       17.3458118020
 Ga        31.3110336338       20.1930992628       22.9994095949
 Ga        31.3131149145       20.2110225802       28.6601706003
 Ga        31.4551149164       20.1357767756       34.1744831278
 Ga        31.3825919331       23.0778161368        9.1035352314
 Ga        31.3792856730       22.9951543420       14.6194330511
 Ga        31.3125260140       22.9917217985       20.2010191514
 Ga        31.3060171934       23.0111543019       25.8684486270
 Ga        31.4492705074       23.0067364699       31.4628770540
 Ga        31.4580215226       22.8465114162       36.9723955952
 Ga        31.3878156785       25.8619535906       11.8966522235
 Ga        31.3125829176       25.7927645646       17.4118002009
 Ga        31.3062937608       25.8657315463       23.0715440559
 Ga        31.3929782631       25.8692755695       28.6741640458
 Ga        31.4601604473       25.7925868834       34.2585948144
 Ga        31.5302182752       28.8228823165        9.3465255365
 Ga        31.3846139620       28.5890357058       14.6153926968
 Ga        31.3104590802       28.6525815683       20.2194880405
 Ga        31.4493309794       28.6738473693       25.8717568480
 Ga        31.4624149507       28.6039441864       31.4626593890
 Ga        31.3079492967       31.3083854195       11.6598330590
 Ga        31.3857606913       31.3985503040       17.4120819841
 Ga        31.3942319736       31.4641507837       23.0174887855
 Ga        31.4580322248       31.4627549544       28.6673512992
 Ga        31.3753397358       34.3347339792       14.6224465870
 Ga        31.4645207076       34.1750280867       20.1385433505
 Ga        31.4584980038       34.2565208533       25.7963690442
 Ga        31.5508747283       36.6555828998       17.1040332673
 Ga        31.4608990214       36.9710514163       22.8487712466
 Ga        34.3379763314        9.1064518495       26.1093175013
 Ga        34.2491158640       11.7436409090       23.1514372468
 Ga        34.1982992250       11.7420248404       28.7536085487
 Ga        34.2408002785       14.5384970077       20.2750013140
 Ga        34.1092916260       14.5337669502       25.8693200404
 Ga        34.3345537561       14.6207061791       31.3786255297
 Ga        34.2444081096       17.3357937193       17.4123207030
 Ga        34.0966698457       17.3366114942       23.0604699655
 Ga        34.0201394425       17.3371469180       28.6630631776
 Ga        34.2544538646       17.2483876541       34.2585439518
 Ga        34.2503753488       20.2006073786       14.6182602752
 Ga        34.0936817139       20.1336966900       20.2015358960
 Ga        33.9553273393       20.1441648622       25.8652801352
 Ga        34.1671957432       20.1339087428       31.4668794374
 Ga        34.3388134892       19.8919617566       36.8937194894
 Ga        33.9314401666       23.3256684114       12.0683592637
 Ga        34.0925025077       22.9932620800       17.4098584844
 Ga        33.9490161148       23.0005577898       23.0093419716
 Ga        34.1077049078       23.0004567342       28.6697236657
 Ga        34.2536759990       22.8543199908       34.2571511551
 Ga        34.3387851273       26.1042197747        9.1148198619
 Ga        34.1033048797       25.8644459170       14.6108450159
 Ga        33.9994104392       25.8557588196       20.2087744447
 Ga        34.1077679520       25.8050715882       25.8661569549
 Ga        34.2543296227       25.7323119399       31.4589983314
 Ga        34.1961652793       28.7467035840       11.7521949437
 Ga        34.0271974729       28.6544408816       17.4071142444
 Ga        34.1101239698       28.6702616543       23.0107053108
 Ga        34.2551706323       28.5937157766       28.6037221321
 Ga        34.3407200959       31.3089853391       14.6903331214
 Ga        34.1178842215       31.4644219423       20.1990101087
 Ga        34.2531955306       31.4608630314       25.7908802785
 Ga        34.2583569795       34.2534806670       17.2502187263
 Ga        34.2515768478       34.2546734693       22.9179611931
 Ga        34.3378261107       36.8900410197       19.8923847324
 Ga        36.8854796176       11.6623523806       26.1145809303
 Ga        36.9030401350       14.5381231984       23.1598254025
 Ga        36.6479960203       14.4493520517       28.8920206553
 Ga        36.9056381067       17.4095398947       20.3487691328
 Ga        36.6638996240       17.3392252980       25.9507943921
 Ga        36.6533787410       17.1035824298       31.5482811960
 Ga        36.9060492761       20.2734211817       17.4920687089