    1847
 i =      120, E =    -56930.8648615730
 In        40.7682502265       22.3288628290       46.1439144976
 In        28.4311406034       40.6149420777       46.6192789948
 In        37.5313027681       22.4734226946       31.5011390687
 In        40.6886647581       40.6136649849       34.5257321815
 In        34.5966701119       22.4100026066       22.3991168851
 As        44.9475504254       20.9967651333       30.1070403234
 As        44.9748414878       21.1076455708       35.9214749450
 In        34.5991342193       31.5896521936       37.5885391810
 In        46.6223467175       22.5578820023       22.5587660732
 As        45.2890959281       20.6498838595       42.3096948735
 As        36.1507302025       42.0675011237       17.8529419466
 In        34.5837251107       22.4708969726       28.4300858456
 As        36.0509477813       41.9632531717       23.9115487178
 Cl        45.2929219284       24.4811985013       15.1526416205
 As        45.1609536345       24.0529882155       20.9971407963
 As        44.9456109191       24.0559735097       27.0821669054
 As        45.0264327747       23.9323275455       33.1173884588
 In        40.6181319560       40.6143026380       28.5063980861
 In        34.5296214360       22.4803746278       34.5211104835
 As        44.9937226721       23.9355944171       39.0213201337
 As        45.3497996080       23.6261161358       45.2831690985
 As        36.0769590656       42.0678601621       29.9833049077
 Cl        47.6910401832       27.1388964762       27.1020042143
 In        37.6012021922       22.4791763447       37.5261777187
 Cl        45.1288158692       27.5648878785       11.9612262308
 As        45.1526220562       27.0875312685       17.9480846183
 As        44.9381699002       27.0845455658       24.0365644926
 As        45.0133568394       27.0957260443       29.9601365260
 As        45.0361463106       27.0232557960       35.8840689803
 Cl        47.7355695393       35.7943153296       29.6767384033
 In        46.3208815142       22.5609626787       28.6441716252
 As        45.1744107431       26.8658339772       42.0814830499
 Cl        44.4686004015       26.2936729681       48.4124870934
 Cl        44.4349819001       30.7240311951        8.5962982521
 As        45.1273298643       30.1613345167       14.8751333544
 As        44.9440786787       30.1219532377       20.9873545035
 In        34.5312818650       31.5089438609       43.6115579732
 As        42.2110006620       39.3672692743       14.7364479229
 As        45.0020417617       29.9183113871       27.1332198101
 As        45.0319404958       29.8758305505       33.0322124926
 As        45.1728225094       29.9157606988       39.0259420450
 Cl        45.1109198280       29.5081214888       45.0772139735
 In        31.7498319025       13.2342408481       46.4659301911
 In        37.6676454906       40.6155489657       37.5996426053
 In        34.5878360076       22.4920730996       46.3025802729
 In        37.6795811627       22.4997054328       43.3819538808
 As        45.2886397058       33.3996403157       11.6733626249
 As        44.9714488847       33.1666186323       17.9147526520
 As        44.9446060696       33.0244492022       24.0106220317
 As        45.0353817058       33.0485028535       29.8574265443
 In        37.6086901011       22.4028189512       19.3262934266
 As        32.9728370854       21.0105706302       11.8465259817
 As        45.1794589161       32.9394735584       35.9739405048
 Cl        45.2825995555       32.6032028364       41.8750363524
 As        39.0762969400       30.0422438553       14.9138800609
 Cl        47.8079165077       30.2945185384       18.1705886810
 As        45.2506092637       36.4301600669       14.6304899133
 Cl        48.6159216115       35.3003035170       35.2064553307
 Cl        44.3485047940       48.4884959857       26.2810771027
 As        44.8975714071       36.0603121682       20.9869373818
 As        45.0731596427       35.9445231772       26.9902786690
 As        45.1716983215       35.9984083560       32.9368002618
 Cl        45.3037557073       35.7156480106       38.6982767520
 Cl        32.2147961952       18.6832343216        8.3962261793
 Zn        34.5300503961       34.5077154108       10.6089300555
 In        28.5927072523       43.6140422377       13.3664503776
 In        43.4452872352       28.5804119450       25.5596870810
 In        37.4425699244       25.6505916979       10.3599073233
 Cl        45.0242095270       38.9650270419       18.1011711069
 As        45.0065421160       39.1022039123       23.8814781609
 As        45.1872331043       39.0486654488       29.8756348846
 As        42.0716339541       39.1309076637       20.8486792163
 Cl        45.2955532860       38.8591130527       35.5997993551
 In        28.5656923190       43.6149971038       19.3995606002
 In        31.8072328910       43.6970662874       10.4689881128
 In        37.6040536415       25.4779676435       16.3248305299
 As        45.2762903683       42.3601140590       20.5710975154
 As        42.0869819323       39.1095549307       26.9356662096
 As        45.1419141243       42.1368941928       26.8546445022
 Cl        45.2589373570       41.9817335186       32.4437786207
 In        28.5019517377       43.4703258075       25.4274919847
 As        42.1976875862       39.1074576246       32.9801772055
 Cl        38.8461904911       30.3231800894        9.1819284840
 In        40.9938335941       43.4420040705       19.4779475800
 In        37.5954428223       25.4229047977       22.4049696272
 As        45.3015128329       45.3624093351       23.6116191088
 Zn        46.3938544209       22.5005090910       34.5167328182
 In        37.5329238640       25.4870760096       28.4824063176
 Cl        45.0129841698       45.1543036537       29.4506732000
 As        39.0355917791       30.0186510489       20.9313919749
 In        46.1539667778       22.3332148539       40.6821025857
 In        37.5341627741       25.5060712874       34.5280310951
 In        34.5305715750       34.5202990914       16.4813338656
 As        36.0970682980       42.1420488020       36.0618590492
 In        43.7106956846       34.7537563127       13.2301279337
 In        43.3898418846       34.5846558054       19.3869400582
 Cl        45.3487058089       18.3663037360       21.3743034133
 As        42.1704676388       14.8511267615       33.1504869650
 As        39.0517553648       33.1060182755       11.9921473671
 As        45.1617713858       17.9458629420       27.0861035133
 As        42.2424832613       14.7655177256       39.3197101036
 As        39.0817240423       33.0733265129       17.9152312131
 In        31.4294297005       37.4425687360       46.6387744804
 As        44.9905457294       17.9696629262       33.1320778847
 Cl        35.7081291644       42.1062230364       41.9792157239
 As        38.9942651969       33.0627130587       23.9681688601
 In        40.6782501357       37.6055671942       31.5207859218
 Cl        32.7483279171       24.2581204919        9.2330042876
 In        40.6009565717       25.5602719421       13.3026629139
 As        39.0469299516       33.0746006816       30.0179957143
 In        34.5236710036       34.5240421495       22.4727691516
 As        33.0282748711       23.9817291861       14.9013476836
 As        33.0641346061       23.9485516743       20.9297499805
 In        34.5966466857       22.4833376862       40.4586533106
 As        39.1422211077       33.0742260187       36.0729279453
 In        34.5827078069       34.5819449371       28.5116349838
 As        33.0651603109       23.9915076579       26.9464288568
 As        33.0454607923       24.0007485535       33.0136694111
 As        33.0637185875       23.9787769550       38.9843776203
 As        39.1310412842       33.0436780963       42.1190844413
 In        34.6022137352       34.5961898565       34.5904492154
 As        33.0551101132       24.0152844614       44.9484612444
 In        31.5163908746       16.3936647439       13.3109400170
 In        31.5722238391       43.5404753789       16.3080552458
 As        33.0506251046       27.1520964260       11.9763946343
 Cl        38.3272061247       32.2401745779       48.5843343885
 In        28.4864413869       43.4574840108       31.4263883930
 As        33.0737879541       26.9914248842       17.9619960421
 As        33.0592744287       27.0144690347       23.9560566988
 As        33.0528329756       26.9942119406       30.0095842089
 As        33.0720699197       27.0080524985       36.0011835764
 As        33.0580661939       27.0014184047       41.9730562203
 In        37.6084784335       25.5533780830       40.5324502043
 Cl        33.0778358920       26.9603311825       47.7104487454
 Cl        33.0015831696       30.0298844292        9.3095548956
 As        33.0143047469       30.0240427719       15.0220050295
 As        33.0506309106       30.0241827357       20.9726615326
 As        33.0180153299       30.0118831260       26.9929801895
 As        33.0679993128       30.0528401110       33.0083202571
 As        33.0589858957       30.0442093815       39.0316081732
 As        33.0654715541       29.8816032157       45.0442229773
 In        31.5901228262       16.3715758522       19.3873261408
 In        31.4953607136       43.4594979655       22.3906624336
 As        33.1206334204       33.0816252276       11.9719974261
 As        33.0395070448       33.0216298499       17.9961752066
 In        37.5993636739       19.4735083346       34.5269756974
 As        33.0194212929       33.0225773168       23.9791264461
 As        33.0534352168       33.0565170366       29.9917107497
 As        33.0681401576       33.0727759543       36.0624978133
 As        33.0498476101       33.0483654349       42.0912912228
 Cl        32.7818217225       32.7668632195       47.7710128819
 As        36.4271288746       42.3165592226       11.7079721330
 In        31.4457410327       43.4568897149       28.4072550198
 Cl        33.1510837130       35.9405422295        9.2886937359
 As        33.0345681093       36.0423612053       14.9999694297
 As        33.0397617927       36.0325196175       20.9373730303
 As        33.0507134207       36.0338480377       26.9747441829
 Cl        35.7366635260       14.9393185041       14.9427563402
 As        42.3356574628       11.7653641486       36.3870295215
 As        33.0705026464       36.0763421707       33.0534476459
 As        33.0726188337       36.0925343960       39.0983922653
 As        32.9954291336       35.9885402204       45.1596972130
 As        36.0879386667       14.8295976778       20.9327554271
 In        46.3822096841       37.5105867827       19.5475252865
 As        42.1613996359       23.8695586002       42.1225194988
 In        31.5856924870       16.4635219448       25.4205138837
 In        31.5853496195       43.5613002214       34.5335989355
 As        36.0771784119       14.9116970657       26.9866485964
 In        37.5111270377       46.3782523594       19.4810039712
 Cl        41.8997328983       23.8157950592       47.7134350731
 As        33.1378039732       39.0357722644       12.0071922970
 As        36.0733411621       15.0136528690       33.0280055915
 In        37.5284882502       25.4902734829       46.2962109205
 Cl        41.3440152177       27.8347164373        8.3945069274
 As        42.1251928795       27.0381604762       14.8705129052
 As        36.1233861023       14.9342475530       39.0854257109
 In        46.4680821853       43.7761445280       25.2552994001
 As        42.0611264122       27.0151698248       20.9272413516
 As        41.9714202084       27.0131685988       26.9987399611
 Cl        29.4655163146       11.9207131346       11.8855573733
 As        41.9759747863       26.9945308316       33.0097839255
 As        42.0954834233       27.0128076467       39.0641202007
 In        37.4477249769       10.6934313946       37.4304387503
 In        46.6221269506       25.5719531284       19.4750941419
 In        31.5248566157       43.6302487008       40.6092722747
 In        34.6029208061       34.5991841664       40.6249190064
 In        34.5134302125       34.4416004422       46.6251123025
 In        43.6388969936       19.4652651943       22.4760126848
 Cl        44.9804578881       18.1351195338       38.9114843112
 Cl        42.1027369259       18.1709245135       18.1259016660
 Cl        39.0760022809       36.2798260331        9.3236350964
 In        40.6192840893       31.5096424397       43.6270067162
 As        36.4255951446       45.2482068806       14.6264423687
 As        42.1455885383       17.9132221389       23.9634021788
 As        39.1113908845       36.1215073681       14.8944588724
 In        28.5730168819       43.5496674388       37.6038913910
 As        36.0398899343       44.8971022579       20.9091462463
 In        34.5916144161       37.5312631741       13.5413242951
 As        42.0657703069       17.9304242204       30.0441762365
 As        39.0326992685       36.0822832897       20.9075139427
 Cl        35.7980075333        9.2569505695       27.2922738412
 As        33.0654690185       39.0791319935       17.9073488528
 In        40.6084121555       25.4239137029       19.3859646572
 As        42.0921359116       17.8875411804       36.1026453870
 As        39.0407631426       36.0884053043       26.9932198378
 As        30.1131157278       36.0115037434       12.0510875644
 As        33.0404530928       38.9878789334       23.9429663614
 As        33.0759240227       39.0403357795       30.0043482548
 In        28.4909143291       43.6207769725       43.6209211779
 In        40.6754335048       43.5449694282       25.4215376917
 As        39.1505944311       36.0956143684       33.0414043831
 As        30.0122030368       36.0701241818       17.9669318192
 As        33.0725151218       39.1028209723       36.0755746994
 As        33.0522697821       39.1054679095       42.1639013221
 Cl        32.1987401098       38.3472947040       48.5983859168
 In        34.5308767911       37.5263091282       19.3986032408
 As        39.1507113945       36.0949444691       39.1085441206
 As        36.0146427429       44.9462554371       26.8741537216
 Cl        33.2464397560       41.8225705706        9.2660923439
 As        33.1848041349       42.1406350157       14.8232371651
 As        33.0415142156       41.9964481283       20.9225595068
 As        33.0098322020       41.9711532178       26.9563073938
 In        34.5762975954       37.5291674169       25.4846513696
 In        37.5311540857       28.5690885809       13.3845850286
 In        40.6928731008       37.6029346620       37.6018870071
 As        33.0649722371       42.0695694693       33.0050230781
 As        33.0463839773       42.1450535484       39.0922867974
 Cl        32.5099222208       41.9651958218       45.2627510386
 In        31.5770780284       16.5393738141       31.5023762832
 In        31.6802678372       37.4590561003       10.6188118576
 In        34.5997036776       37.5934268864       31.5801232373
 In        46.3058606407       37.5159491038       25.4193061972
 As        33.4399840873       45.2830448378       11.6456743847
 As        33.1225990065       45.0082972404       17.8930101579
 As        33.0166704796       44.9539440288       23.9418491861
 As        32.9712703507       44.9486394061       29.9098791989
 As        33.0102349823       45.1568225774       35.9836958628
 Cl        32.5359926668       45.3021132169       41.8427039666
 In        34.6160711773       37.6088997005       37.6058335850
 Cl        42.0602935234       38.9581601015       38.8633466583
 As        38.9969377740       30.0395869766       26.9880507005
 In        37.5103228353       43.3924258260       15.9997054660
 Cl        33.2513143597       47.7107412246       15.0897123616
 Cl        33.1628264061       47.7793236964       20.9425756027
 Cl        32.9800862818       47.7439808607       26.8363031079
 As        36.4311713720       14.6538080223       45.2258576229
 In        34.5840649267       37.5846162095       43.6869302480
 Cl        47.7420662988       23.8060318994       41.8361905193
 Cl        32.7721031922       47.8382154486       32.7116731256
 Cl        32.2256416550       48.6640496551       38.2459286709
 Cl        30.6906140781       12.5799127239       48.4045740932
 As        30.0217431762       36.0284840598       23.9425576122
 In        37.6152317093       19.4044435563       40.5291534468
 As        30.0414135637       36.0325370510       29.9879001281
 In        40.6180232999       43.6285769884       31.4980517056
 In        37.6120037333       43.3889563096       22.4114366454
 As        30.0561031736       36.0579251953       36.0400647685
 In        34.5266083597       31.5144803054       13.5267543029
 In        28.6497620429       46.6217050040       16.3262183291
 As        30.0272979807       36.0834268141       42.0997986934
 In        43.4564861667       34.6028059768       25.5105964684
 In        37.5964850324       28.4364654977       19.4042772425
 In        34.5804144232       31.5077672978       19.4704125914
 In        34.5241135003       31.5134207678       25.4885380228
 Cl        35.6596510830       18.2343850126       11.6371303996
 As        36.0331986540       45.1629634561       32.9306042599
 As        42.1714463137       26.8801646901       45.1185140797
 Zn        28.5738760967       46.4055364517       22.4881051802
 In        34.5856947283       31.5862371960       31.5172720216
 As        36.0886739752       17.8844093131       17.8554669681
 Cl        47.7012338442       33.2294993677       15.1334292269
 In        31.5121840565       16.4684620195       37.5307876839
 In        43.6152959882       34.5231606043       31.4883994855
 Cl        47.6925194433       33.0469546975       26.9173289476
 As        36.0891159857       17.8972515390       23.9227200775
 In        37.5311996482       28.4998435168       25.4792438071
 In        31.8061995590       46.4676049358       13.2196009277
 As        42.0838146987       30.1384270831       11.8655585164
 Cl        35.6070783134       45.3658930609       38.7294193339
 In        31.5793087172       16.3224620519       43.5326577610
 As        42.0818946863       30.0648251311       17.8998817911
 As        41.9668181567       30.0404460028       23.9925944751
 In        46.3275180364       25.6483110889       25.6447323971
 In        46.2287381977       25.5671479711       31.5892516696
 In        43.4629193300       28.5110115178       31.5131833937
 In        37.6002809040       43.6325298029       34.5262954755
 In        46.3122965770       25.4095472186       37.3776856726
 In        40.5305030207       25.4847683179       25.4303371785
 As        42.2761023482       17.6937888651       42.2089820405
 Cl        38.7077152773       35.7149372713       45.2733997042
 As        39.1214159426       27.0006620525       42.0641837160
 In        37.5982572691       37.5970448334       28.5667650440
 Zn        28.4993326959       46.3899396024       28.4274381532
 In        31.5149891518       40.4600085862       25.4255781340
 In        37.6743562051       37.6088772778       34.5950427923
 As        30.0406367839       23.9933669442       23.9565472126
 In        46.1495847304       34.7517219383       16.2350590174
 In        37.5338747968       28.5703239354       31.5172981032
 Cl        38.2997249406        8.4167066229       24.7681453289
 Cl         8.6034991576       12.5577138040       26.2814222544
 In        28.5753553660       22.4220808369       16.4581315779
 Cl        42.0721227698       21.3391875160       14.9389873551
 Cl        38.9162483050       38.9269436888       12.0081804887
 Cl        38.8816039157        9.1983511634       30.2966732025
 Cl         9.2740857160       15.1376609338       23.7995811901
 Cl         8.3815834955       15.6266753030       29.2241126019
 In        28.5732993091       22.4730127602       22.4221525402
 As        39.0882721692       39.0901707139       17.8828207015
 Cl        39.1045258005        9.3583323786       36.2804270512
 Cl         9.3106731637       17.9541734927       20.7642134490
 Cl         9.1747019790       18.1091418791       26.7049697731
 Cl         8.3956092530       18.7120657183       32.1920045977
 In        28.5644355817       22.4780578179       28.4909668226
 As        39.0746748294       39.0854830978       23.9115843008
 Cl        45.2681656702       15.1897172853       24.3990121683
 Cl         9.3146213577       20.8102309889       17.9549148872
 Cl         9.2465465102       20.9941431330       23.8420249545
 Cl         9.2631179915       21.2321801000       29.6897203213
 Cl         8.3663370162       21.7849934270       35.2316110826
 In        28.4957256951       22.4756475412       34.5173809308
 In        28.4228753399       46.3204558322       34.4324062289
 Cl         9.2899513707       23.8232772161       15.1265560549
 Cl         9.2522370134       23.9050892208       20.9951812712
 Cl         9.3181964499       23.9887464035       26.9050447398
 Cl         9.2424778044       24.2757565345       32.7296842369
 Cl         8.4021097355       24.8352808234       38.3100923453
 In        28.4988993793       22.4768773471       40.5200640096
 In        46.3087176625       34.5301604778       22.4867404949
 Cl         8.5994581958       26.2982154136       12.5291965799
 Cl         9.1776857714       26.7635039745       18.1702602690
 Cl         9.2839980838       26.8933350892       24.0219802939
 Cl         9.3236544931       27.1327659286       29.8803178362
 Cl         9.2662795835       27.3225738807       35.7688432404
 Cl         8.3760778527       27.7937637430       41.3626978866
 In        28.6507321151       22.5634137949       46.3192237141
 As        30.0451102475       23.9930178384       30.0058242664
 Cl         8.3733633068       29.2445137068       15.6771324218
 Cl         9.1898162464       29.7562570526       21.2113271965
 Cl         9.3141312514       29.9270303868       27.1004905438
 Cl         9.3197313296       30.0999326117       33.0091603678
 Cl         9.1891301775       30.3127599284       38.8732784940
 Cl         8.5887765715       30.7468355628       44.4153484705
 As        36.0880910470       17.9656980850       29.9935258168
 As        30.0091702864       23.9837013742       36.0181828911
 Cl         8.3387079866       32.2269801268       18.7328728314
 Cl         9.2033516501       32.7748307162       24.2865848533
 Cl         9.2851187995       32.9830603350       30.1170764240
 Cl         9.2313963685       33.1754375161       35.9953169476
 Cl         9.3087212239       33.2433440014       41.8472770732
 As        36.1036883383       17.9718359198       36.0539263654
 As        30.0497426514       24.0115304626       41.9727307435
 Cl         8.3358959861       35.2215737229       21.8004253383
 Cl         9.1894055156       35.8036161723       27.2678759282
 Cl         9.2608194325       36.0361735937       33.1077562542
 Cl         9.3311308668       36.2807588970       39.0263871778
 As        36.1265652983       17.8715166753       42.0231105851
 As        35.9513547605       11.9650764807       29.9795913403
 Cl        30.1495878735       24.0475767608       47.7277664870
 Cl         8.3404955769       38.2872943219       24.8039087203
 Cl         9.1873493999       38.8766280174       30.2336768850
 Cl         9.3253495310       39.0814734707       36.2207279840
 Cl        36.2432971174       17.9588073143       47.6841656648
 In        40.6074128548       10.3774803209       28.6400911894
 Cl        29.9027416873       27.1046888288        9.3183698919
 Cl         8.4224401359       41.3517783500       27.7240784501
 Cl         9.3012704147       41.8754995492       33.2091299156
 Cl        35.2247665191       21.7631319885        8.3686345946
 In        40.7544099641       10.8592639797       34.6793488838
 As        41.9651769381       30.0226748178       30.0103136577
 As        30.0054922289       27.0010052791       15.0262309658
 Cl         8.5790179950       44.4234350319       30.7104513985
 As        36.0857645721       20.9421154099       14.7969384381
 In        37.5324096384       46.3173024218       25.3335568926
 As        42.0913074507       30.0179096373       36.0427950924
 As        30.0471186793       27.0059742201       20.9810983841
 As        36.0890195290       20.9200965818       20.8796995673
 In        37.6044184185       28.5795036773       37.5910584691
 As        42.1780744545       30.0016051392       42.1337849890
 Cl        41.4070885319       29.2824594240       48.5489224404
 As        36.0794300047       20.9373911024       26.9420041595
 Cl        36.2713956455       47.7093871503       17.9035879596
 Cl        41.8607246349       33.2351345225        9.2939839100
 As        42.1412552426       33.1872969389       14.8312639310
 In        37.6017241193       28.4998555309       43.5592979724
 In        34.7488973765       40.6878353568       10.8426063359
 As        42.2523939184       42.2202164492       17.6326127790
 Cl        47.7671684185       33.1484659710       20.9911132807
 In        37.5172831457       13.6108070178       40.9148249189
 Cl        45.3487071360       21.4396478570       18.2504213085
 As        42.1487780391       20.9515428792       20.9227037898
 As        39.1121160690       39.1106035188       30.0258860782
 Cl        38.7430385467       11.6911533920       21.3056679345
 In        34.5752820341       40.5909044568       16.3805954972
 In        34.5229336518       40.4606202075       22.4108373520
 As        42.0629005683       20.9579257599       27.0025046461
 As        39.1726355544       39.1190958900       36.0611208505
 As        39.0691637770       11.8198310168       27.0853849286
 As        29.8955858940       11.9641438847       23.9581751465
 Cl        36.0035672807       47.7550334316       23.8351640322
 As        42.0061278714       20.9772726456       33.0398854810
 Cl        38.8314366768       38.9516232754       42.0328123379
 As        39.0850638014       12.0100943808       33.0743061874
 In        10.5352644670       13.2884433187       25.2581101649
 As        33.0750009656       15.0256866239       36.0180130878
 In        43.7086089339       34.5212888434       37.5331484030
 Cl        35.8032089825       47.8037524386       29.6833214684
 In        28.4279205073       46.6165663604       40.6090749145
 Cl        38.8954445448       12.0527826540       38.9204356323
 In        10.8560335530       16.2472968152       22.3157872137
 In        10.3792414343       16.3919388113       28.4193919959
 In        28.5125762702       25.4867261383       13.5355509642
 In        31.5147804980       13.3880344566       22.4738494379
 Cl        47.7202710181       30.1578518251       24.0413544979
 Cl        35.2280711015       48.6654070195       35.1929013055
 In        10.6251599663       19.5488495278       19.5411224069
 In        10.6943578346       19.4942815468       25.4399942232
 In        10.3527034410       19.5589587600       31.3549754486
 In        28.5729653282       25.4834810920       19.4734554402
 In        34.5863672508       40.5347591986       28.4984551522
 In        40.4655377157       25.5027050452       31.5160888035
 In        43.5450316425       28.5004803205       19.3861915285
 In        10.8508962085       22.3175854894       16.2451139880
 In        10.6945798034       22.4859266998       22.4868512334
 Zn        10.5987699973       22.5625319809       28.4304498049
 In        10.3629185504       22.5673772589       34.4325389269
 In        28.5148530100       25.4828128985       25.4843097146
 In        34.6101662475       40.6156172582       34.5964803122
 In        31.5751530322       13.5336526339       28.4946568653
 In        10.5308686545       25.2586844810       13.2331391025
 In        10.6850371505       25.4069574934       19.4685780865
 In        10.7503755617       25.4925632917       25.5846437322
 In        10.7573333199       25.6367003713       31.3649023927
 In        10.3563845602       25.6494261426       37.4369993939
 In        28.5076893186       25.4861611830       31.5081581148
 In        34.5939683870       40.6128403799       40.6225555884
 In        31.6455368456       13.5416643510       34.4465485894
 Cl        29.1987195959       15.6257492237        8.3685200094
 In        10.3866700711       28.4243662855       16.3851486331
 In        10.6809937439       28.4251668181       22.5597981046
 Zn        10.6145115220       28.4996430509       28.5063169051
 Zn        10.6019040538       28.5729044087       34.4339750396
 In        10.3793221472       28.5863917162       40.6032264644
 In        28.4982793135       25.4828649009       37.5201579069
 As        30.1408946625       12.0562692529       36.0028141286
 In        40.5421699201       25.5530658690       37.5893235989
 As        30.0207916891       14.8698491291       14.8670939841
 In        10.3764939283       31.5027932936       19.4748003353
 In        10.6772313230       31.4132231972       25.6360507733
 In        10.7548063841       31.4171102933       31.5072791184
 In        10.6923261883       31.5788337538       37.4677408562
 In        10.5365742555       31.7508917329       43.7031980440
 As        36.0581952665       20.9742964883       33.0340149833
 Cl        29.7353038772       35.7907695718       47.7338958901
 As        30.0253333086       14.8997323079       20.9188114954
 In        10.3756478548       34.5150873639       22.5584326809
 In        10.6804476050       34.4531101849       28.5894287572
 In        10.6906325550       34.5264077647       34.5120078288
 In        10.8594743458       34.7412512767       40.6976020602
 As        36.1059083502       20.9503122205       39.0336685505
 In        31.5082027666       37.5868396513       16.4599592504