    1259
 i =       59, E =    -35444.9019500314
 Cl        17.9464231667       42.2265505885       18.1000923178
 Cl        23.9573719564       42.1713080244       23.9415827219
 Se        39.3546860132       14.8578702283       24.1100613091
 Cl        42.1647265275       18.0179164549       23.9822393040
 Cd        31.8248982099       19.2979334326       40.7101085406
 Se        17.9046580373       33.1623890605       27.0245604958
 Se        20.9005121291       36.2616621839       27.0694085117
 Se        23.9371580892       39.3333652362       27.0222820438
 Cl        26.9498588252       42.1537591864       26.9323375532
 Se        17.8577669568       30.1362496606       17.8139223568
 Se        32.9262667902       39.4914149974       30.1294985549
 Se         8.5487701276       23.7691356758       14.7096018527
 Se        20.9244576493       30.1334135332       20.8959885239
 Cd        34.9179219208       19.3765001602       13.2022691931
 Se        20.9306327661       33.1979903375       17.8152848362
 Cd        31.8885673927       40.7297776624       19.3057191596
 Se        24.0003149548       14.7992531309       27.0772933556
 Cd         7.6941193023       28.2311462887       13.6680977312
 Se        30.1638885659       11.7618974966       17.8810519989
 Cd        13.5808750279       34.4192372179       13.5857201673
 Se        33.2948848302       14.7649028441       17.8915517339
 Cd        19.7556359682       40.2485199934       13.6107715320
 Se        39.9889938019       28.6591003067       13.6050569839
 Se        20.9678858203       23.9846937655       14.8099865504
 Cl         5.8423494409       26.9742576626       21.0058551420
 Se         8.7223867395       30.1088718170       20.9002759183
 Se        24.0057463688       36.2856584362       17.7943954030
 Se        14.9468458425       11.6899778721       33.3394721083
 Se        17.8788221075       14.7849276564       33.2958364533
 Se        20.9485324158       17.8798254016       33.2013810974
 Se        24.0044318627       20.9659968019       33.1827444436
 Se        27.0759998906       24.0302504918       33.1941454980
 Se        30.1482851822       27.0871510246       33.2023028995
 Se        33.2130763080       30.1642569056       33.1992418071
 Se        27.0712250873       27.0953228215       36.2526685668
 Cd        40.5668932226       26.2300913029       14.1452096965
 Cd         7.3009950356       25.2333377550       16.5075270188
 Cd        10.2548839861       28.6179023293       16.2553843384
 Cd        13.2592319813       31.6820624572       16.2220012547
 Cd        16.3102874515       34.7315977677       16.2226735121
 Cd        19.3676888359       37.7312728978       16.2420297038
 Cd        22.7347038782       40.6694127649       16.4818055839
 Cd        25.0472054037        6.8828535284       12.7929722362
 Se        14.8155944909       17.8588589366       27.0624115390
 Se        36.3211895800       33.3519936441       33.0570615776
 Cl        23.9783543973       42.1864807786       29.9023631917
 Se         8.4711810380       21.2280804123       36.2553674234
 Se        11.6685027479       24.1962894875       36.4107444946
 Se        14.8915682017       27.0651728228       36.1514637380
 Se        17.7316939766       30.2928584306       36.3041200492
 Cd        40.5710789264       13.4380847109       19.6093497983
 Cl        20.9972454733       14.9539906366       42.1701028098
 Cl        23.9831665316       18.0258434627       42.1559616343
 Se        30.1415713112       30.1747753006       36.2113601254
 Cd        22.4619784254       31.6621579760       19.3583863870
 Cd         7.2188925955       22.3252414895       19.3817593573
 Cd        10.2301943981       25.4898326095       19.3864345648
 Cd        13.2942794712       28.5716731593       19.3743202424
 Cd        16.3264319035       31.6662090913       19.3491801816
 Cd        19.4187538599       34.7013387859       19.3683901811
 Cd        22.4882639997       37.7680400241       19.3675519032
 Cd        25.6491165190       40.7865223931       19.3594479140
 Se        17.8770048972       36.2291846794       17.8277088462
 Se        17.8871712471       20.9258578932       27.0700624570
 Cd        34.9271614471       10.3598934767       22.5905078248
 Cl        27.1296884544       20.8706433792       42.1403717007
 Cl        29.9626685173       24.0462095294       42.1170691588
 Cl        33.3209647320       26.7245422618       41.9505734934
 Cd         7.3361932211       31.8277856640       28.6998461417
 Cd        34.0825703407       21.6689515977       40.9622758427
 Cd        31.7775487134       13.1139623537       10.8116219927
 Cd        10.5055968300       13.3700078807       19.2145924040
 Se        17.8032517528       11.6938327614       36.3586175509
 Cd        10.5296347279       34.6316848009       28.7734947832
 Cd         7.2259768063       19.3663933557       22.3677801247
 Cd        10.2418771454       22.4351887873       22.4334156929
 Cd        13.2824687214       25.5163178285       22.4555580638
 Cd        16.3392336143       28.5902959631       22.4337523157
 Cd        19.3932567129       31.6603290829       22.4298431313
 Cd        22.4722673989       34.7186384160       22.4407067747
 Cd        25.5309793629       37.7634872464       22.4033719702
 Cd        28.6282717487       40.7877639636       22.3239697788
 Se        20.9315645238       39.3103630082       17.8139951285
 Se        21.0179676916       14.7647970955       36.3293412345
 Se        24.0289609953       17.8914995976       36.2175683060
 Se        27.1036154407       20.9231363037       36.2582718793
 Se        30.1559966816       23.9862911888       36.2862788825
 Se        33.2297674040       27.0040393879       36.2997274294
 Se        36.3453014552       29.8389865221       36.3398543131
 Se        23.9891046235       11.7079360196       17.8556992273
 Cd        28.3084151206       13.5150370161        7.8538576187
 Se        20.9385928657       33.1930572137       36.1188607156
 Cd        13.4191766427       37.5070064361       28.7852071501
 Cd         7.3575510561       16.5193063912       25.3296917447
 Cd        10.2500820438       19.4271669141       25.5061789677
 Cd        13.2899695646       22.4747102895       25.5217153720
 Cd        16.3379254552       25.5209794317       25.5148046300
 Cd        19.4190891992       28.5794463824       25.4867748333
 Cd        22.4700470233       31.6679041814       25.4929341976
 Cd        25.5189629237       34.7284433478       25.5010389306
 Cd        28.5584421546       37.7572887595       25.4293441853
 Cd        31.5363860019       40.8758613439       25.3179048746
 Cd        38.4092636367       19.2108532608       11.1352259019
 Se        23.8074614477       36.4205546241       36.3380917185
 Se        26.8801387627       39.6481396662       36.2450423069
 Se        20.9267149608       14.8324567169       11.8517677889
 Cl         5.7695811539       17.9695208539       29.8568766639
 Se        33.0829295586       33.3779684719       36.2887968133
 Cd        16.2154468439       40.7190931180       28.6896289672
 Se        20.9461749700       36.1588001899       33.1087692294
 Se        23.9253238329       39.3527061732       33.1540585613
 Se        21.0600546473       17.8977876116       39.3060080017
 Cd         7.9023898491       13.5112219217       28.3005096618
 Cd        10.3330259262       16.3293045597       28.6133960161
 Cd        13.3253604114       19.4234088043       28.5929195815
 Cd        16.3662483726       22.4680115045       28.6051197563
 Cd        19.4277039001       25.5195516898       28.5765834059
 Cd        22.4933740001       28.6077854430       28.5700426643
 Cd        25.5361089549       31.6803900043       28.5886927400
 Cd        28.5818094877       34.7318530074       28.5670186000
 Cd        31.6793279915       37.8207640517       28.6194380474
 Cd        34.2439964646       40.4838854835       28.2182953720
 Cl        23.9816769518       42.1398679009       18.0239050864
 Se        20.8407141460       39.3089170642       30.1536606691
 Se        20.9527213159       23.9937957297       27.0449087023
 Se         8.7127033936       20.9373449329       30.1524530098
 Se        11.7300083065       24.0149011308       30.1555118191
 Se        14.8420561576       27.0370169190       30.0898516304
 Se        17.9315951059       30.0683622226       30.0524768241
 Se        20.9485814454       33.1580062893       30.0745686956
 Cd        13.2917011900       16.4727314751       19.3535580485
 Cd        16.3810717375       19.4410420946       19.4426952866
 Cd        10.8518093520       13.1179241145       31.7693351844
 Cd        13.2781285415       16.3085351811       31.7585195426
 Cd        16.3588420231       19.3926011306       31.6927955057
 Cd        19.4184728533       22.4798729299       31.6702174675
 Cd        22.4958516348       25.5496856660       31.6584983786
 Cd        25.5520786638       28.6371268718       31.6556674528
 Cd        28.6394779359       31.7392077436       31.6625061984
 Cd        31.7040685900       34.8847595234       31.6859058215
 Cd        34.6348713775       37.8778670181       31.3317558824
 Se        20.9564066079       11.7375613172       27.0755157127
 Se        21.3559647631       11.7580920652       39.5796624111
 Se        24.1108486816       14.8557087356       39.3392114456
 Se        27.1792888113       17.8422427185       39.3059127804
 Se        30.1549521849       20.8302915217       39.2967036377
 Se        33.2674724914       23.8199828886       39.4309560692
 Se        36.3115562482       26.6930636701       39.5507722503
 Se        17.8685057690       27.0625485990       20.9013982983
 Cd        13.1068809201       25.3694421796       10.2157539880
 Se        36.2304022735       17.8874206787       24.0260106237
 Cd        19.4296833463       22.4791178702       19.4080525018
 Cd        13.5871258741       13.5808195098       34.4306899984
 Cd        16.3258567662       16.3723141849       34.8105115462
 Cd        19.4323288242       19.4329402747       34.7246283937
 Cd        22.4907300755       22.4944301974       34.7248346339
 Cd        25.5342338143       25.5528873857       34.7148245029
 Cd        28.5976737200       28.6310969528       34.6967334305
 Cd        31.7201277657       31.7986978095       34.7270657464
 Cd        34.4542366775       34.4960940629       34.4116469051
 Cd        16.3317853454       28.5677856705       10.1634502328
 Cl        26.8997579516       42.2136886993       32.9456029605
 Se        11.7018120264       33.2141606449       20.9913876378
 Cd        16.8143708667        7.4409887920       31.1966724434
 Cd        31.7504089502       19.3592195397       10.2591521941
 Se        24.0116696929       27.0744985534       27.0379046514
 Se        23.9741970978       36.2332380103       30.0969982963
 Se        26.9604393851       39.3073068741       30.0929776746
 Cl        37.0187892256       33.3336926507       36.9703452677
 Se        23.9891833238       17.8318005670       11.7100634560
 Se        27.0939393903       20.9264330501       11.7358504386
 Cd        22.4796908105       25.5209254959       19.3767183727
 Cd        16.7843164977       13.6661390919       37.6910888346
 Cd        19.4311397840       16.3198123019       37.8296969831
 Cd        22.5642178943       19.4438685313       37.7524526585
 Cd        25.5788943021       22.4724913296       37.7629188581
 Cd        28.5794754761       25.5248140561       37.7526321822
 Cd        31.6809777495       28.6355053814       37.6730858851
 Cd        34.9003890950       31.8205038661       37.1431344741
 Cd        19.4226170411       31.6631352724       10.1593467002
 Se        30.2031803723       23.9929478434       11.7136614835
 Cd         7.3068668657       19.2875347739       16.1580412689
 Se        27.0399587306       17.9000848370       27.0309736677
 Cd         7.0394401470       13.9068444670       21.6722008831
 Cd        10.2558573813       16.3443140936       22.3380202111
 Cd        22.6270902634       34.8828123769       10.1807531911
 Cd        13.2845886244       19.4128741662       22.4630735914
 Cd        25.5175787360       28.5746200612       19.3954101301
 Se        30.1040508621       20.9814088310       27.0356654160
 Se        11.8437832798       11.8294877020       17.6079637277
 Se        14.8994871764       14.8816575060       17.9337602398
 Cd        28.5533017316       31.6224683495       19.4305889506
 Cd        19.6211962263       13.4460117501       40.5711922255
 Cd        22.5848132236       16.3771003962       40.8896060692
 Cd        25.6201632149       19.3587160643       40.7961167661
 Cd        28.6188076689       22.3599248360       40.7885884826
 Se        30.1821378696       14.7930381327       20.9325526388
 Se        33.2215218004       17.8679320130       20.9427391311
 Se        36.2829700861       20.9629802387       20.9649877737
 Se        39.3366957048       24.0702374656       20.9554240241
 Cl        42.1502958065       27.1288350092       20.8510290414
 Cd        31.4752757871       25.3298587975       40.6448780520
 Cd        34.4856854196       28.3106195946       40.1092399291
 Se        36.1534228399       20.9235673027       33.1566991244
 Se        17.9412988241       17.9203131851       17.9415521103
 Se        20.9912489099       20.9517025040       17.9051991931
 Cd        34.3810532409        7.7449263534       19.7301539125
 Cl        17.8276970697       11.4566308973       40.5257342899
 Cl        26.9304445808       15.5669769458       42.5158045255
 Cl        30.8584304973       17.1165716045       41.4392759693
 Cl        32.2727553720       20.9818904268       42.5720620572
 Cl        35.7435696622       23.0308498078       42.3361939953
 Se         8.7284656571       17.8777948653       27.0868318052
 Cl         6.6430999203       30.8626600420       30.8810954379
 Se        30.1339839093       27.1022104558       39.2736270694
 Se        20.9603332395        8.6895912607       30.1493294079
 Se        39.2812046432       27.0897752074       30.1355935865
 Cl        42.2452951650       29.8643129692       30.0461644724
 Se        17.8491187737       36.2847203581       24.0016302844
 Se        33.2225646944       36.5143126769       33.2064836063
 Se        23.9937879928       20.8938076182        8.6702485503
 Cl        30.8827323566        6.5656945242       30.8410446708
 Se        33.1923429573       33.2901611007       30.1231138861
 Se        11.8587707535       36.1757162066       30.3811139064
 Cd        10.2515895222       22.3223829709       16.3271116625
 Cd        13.2625114987       25.5387851935       16.2870284800
 Cd        16.3224945994       28.6097384547       16.2580908907
 Se        20.9089304195       39.3268861071       23.9937456138
 Cl         5.4411512497       20.9625039980       15.6874288219
 Cd        35.2687426393        6.8962585891       22.9813221290
 Cd        28.7272908566       37.6605146681       19.2827807016
 Se        36.2839412336       36.1755128487       30.1607084358
 Cl        17.1856906057       41.4576066707       30.8666853015
 Cl        42.1728433851       24.0398159982       24.0394493944
 Cd        19.3775383072       10.2563435545       31.7318761388
 Cd        19.2989916570       16.1697285892        7.2876920814
 Cd        22.3652611781       19.3739634881        7.2092977890
 Cd        25.5270743178       22.4813415804        7.2146490097
 Cd        28.6241996191       25.6451574304        7.2089609412
 Cd        31.8375014930       28.6841345684        7.2871637077
 Se        39.4343079015       23.8124439620       33.2677759496
 Cd        31.7488624826       10.2577286584       19.3673382824
 Cd        16.3350428359       22.4752802200       22.4650803847
 Se        24.0690538559       20.9615099284       39.3327640790
 Se        33.2037296818       24.0241023114       27.0708496437
 Se        24.0286698626       23.9760991838       17.8720760541
 Se        27.0474492282       27.0155602574       17.8983350795
 Se        30.0708300060       30.0636667794       17.9325956365
 Se        33.1108278710       33.1105207310       17.9291781054
 Se        36.1771377818       36.1441022655       17.5867801378
 Se         8.6046879218       24.1893623056       33.2995386897
 Cd        31.5255935210       34.7226312901       19.3522364516
 Cd        19.4036933698       25.5284245452       22.4414817136
 Cd        22.4561769804       13.2561685464       31.7032316189
 Cd        19.2135385962       13.3761257885       10.5001207491
 Cd        22.3416998475       16.3419160633       10.2470630688
 Cd        25.5245326379       19.4137964087       10.2431913106
 Cd        28.6269113397       22.4808318295       10.2298372805
 Cd        31.6807396323       25.6557025826       10.2499934411
 Cd        34.6185983687       28.7909268351       10.5102669380
 Se        11.8903738355       27.0663368556       33.1844356064
 Cd        34.9150807735       13.1992889933       19.3860090284
 Se         8.7315600131       17.7493071177       33.1649137384
 Se        11.7287469232       20.9863890559       33.2344998156
 Se        14.8319130949       23.9825740812       33.1901235040
 Se        24.0225806947       11.7149215688       30.1754334368
 Cd        22.4639953357       28.5973340782       22.4276178957
 Se        17.9198403610       27.0625823092       33.1469665737
 Se        20.9628258611       30.1119049076       33.1534098252
 Se        24.0298200161       33.2076794299       33.1682353115
 Cd        25.5145699373       31.6705403003       22.4481695063
 Se        33.2189195040       30.2774733148       39.2123366638
 Cd        25.5315301659       16.3435263541       31.6656804347
 Cd        19.2193221909       10.4956544916       13.3781376104
 Cd        22.5513670932       13.2650658290       13.2712156307
 Cd        25.5354440275       16.3333061230       13.2707294827
 Cd        28.6277245829       19.4069409117       13.2928311518
 Cd        31.7324301184       22.4365832688       13.2623285240
 Cd        34.7667428466       25.4423565465       13.2781300477
 Cd        37.4447216960       28.7877383273       13.4159521405
 Se        14.9024433533       30.0747243382       33.1055827905
 Se        11.7083538594       30.2695313540       30.2765887821
 Cd        28.5594168924       34.7082350518       22.4211829078
 Cd        31.6296780618       37.7512587359       22.4088189352
 Cd        33.8979446378       40.5585153647       21.7686754876
 Se        26.9910830056       36.3775399319       33.2124746862
 Cd        31.2258932889       16.7971434505        7.4484464724
 Cl         5.8657953919       23.9858167387       23.9959952544
 Cd        12.8016452451        6.8833611094       25.0400930565
 Cl         5.7020019968       22.9479478885       12.1613172241
 Se         8.4073770955       26.7275720994       11.7740958918
 Se        27.0817263378       30.1794807440       33.1859434970
 Cd        19.3261439299        7.2915660088       16.1711124617
 Cd        22.3544189450       10.2463990658       16.3527150317
 Cd        25.5362819167       13.2662431646       16.3495010420
 Cd        28.6512483896       16.3176600814       16.3254574003
 Cd        31.7471689365       19.3710954801       16.3178237538
 Cd        34.7785686875       22.4254123335       16.3133259940
 Cd        37.7519953663       25.5881502464       16.3988368008
 Cd        40.7339146870       28.6889072280       16.1456265568
 Cd        28.5613778635       19.4543462836       31.6150808218
 Se        11.6751273965       30.1631178434       11.6410164769
 Se        14.8432663648       33.1560867401       11.6121311371
 Cd        34.3804801417       19.7257990050        7.7451521134
 Cd        35.2662909682       22.9827138590        6.9045107800
 Cd        35.2046303549       25.0450654417       41.1123647189
 Cl        26.9998983938        5.8333347609       21.0106149884
 Se        30.1474219347       39.4904727190       32.9205560936
 Cd        28.6307963410       16.3163729051       10.3182625914
 Se        36.2623071500       27.0863661945       27.0616456335
 Se         8.4591383104       11.6849360172       26.6844404210
 Cd         6.8902899079       35.1972672353       22.9547048064
 Cd        22.3858081622        7.2151547791       19.3866924463
 Cd        25.5219170437       10.2402623601       19.4348673067
 Cd        28.6270969340       13.2912091828       19.4235050148
 Cd        31.7452831302       16.3124687502       19.3781008073
 Cd        34.7454473253       19.4200186500       19.4233359713
 Cd        37.7612368255       22.5586938460       19.4410321156
 Cd        40.8000595497       25.6166970892       19.3505027945
 Se        27.0498340732       14.8375185358       30.0969519099
 Cd        12.7972272587       41.1113250696       22.9587154042
 Se        27.0886087125       11.7357938319       20.9468984255
 Cd        19.3853550875       31.6742224391       16.2554984087
 Cd        34.6226743424       37.4401121606       19.2041381586
 Se        11.7652342093       21.1411172952       39.6411650275
 Se        14.8507228249       24.0973954783       39.3533422791
 Se        17.8382752118       27.1899036999       39.3031327119
 Se        20.8384093487       30.1735955002       39.2846189062
 Cd        22.4538838552       34.7323340923       16.2681310177
 Cd        25.6769029578       37.7439482929       16.3224891886
 Se        11.7046790475       14.7750627836       26.9841949441
 Se        19.2952053518        7.9621546833       13.6325074956
 Cd        25.5160941454        7.2165229574       22.5197258066
 Cd        28.6230997914       10.2321664276       22.4970990739
 Cd        31.7311797989       13.2582800564       22.4517225724
 Cd        34.7789932342       16.3098930389       22.4290749509
 Cd        37.7622391127       19.4400769933       22.5578273307
 Cd        40.7965729157       22.5632756155       22.5585954591
 Cd        31.2116650138        7.4402938698       16.8113445761
 Se        30.1064702761       36.2365804046       23.9453750386
 Cd        28.7180396655       40.7065494569       16.1684504895
 Cd         6.9476575905       22.9738293967       35.2597227673
 Cd        19.3126703354       31.8405971286       40.7022145014
 Se        23.8068658195       33.3118318932       39.4105551368
 Se        26.7688713023       36.2684664682       39.5387235868
 Se        27.0608696477       30.0772328758       14.8441720298
 Cd        31.6566813106       22.4784668235       31.6497596973
 Se        17.9391999923       17.9038762301       36.2622471215
 Se        11.7453882994       26.6206309840        8.4157961652
 Se        15.0676307538       30.0694606674        8.4976793242
 Se        17.9326412077       33.1150983761       33.0967001574
 Cd        34.9223383101       22.5847783009       10.3628660450
 Cd        28.6388128526        7.2168785301       25.6428675208
 Cd        31.6864831813       10.2525815536       25.6603280007
 Cd        34.7724378422       13.2767388423       25.4449335723
 Cd        37.7548894097       16.3980393426       25.5867658823
 Cd        40.8023973796       19.3547158883       25.6140138529
 Cl        24.0605277584        5.8756099792       18.0483955829
 Se        33.1796793010       39.3516033721       23.8995608677
 Se        17.9094475113       32.9064746816        8.4853296764
 Se        21.3594678669       36.2365956887        8.3848114210
 Se         8.6876235196       27.0597792817       24.0165204288
 Se        14.8043684755       27.0563326637       23.9731136898
 Se        11.7131345833       17.8664776398       36.1504115283
 Se        14.7992421627       21.0256373067       36.3621436354
 Se        17.9039907023       24.0452954305       36.2266855135
 Se        20.9287674799       27.1245835822       36.2578468076
 Se        23.9898371272       30.1890105464       36.2804990303
 Cl         5.8858280359       18.0357039587       24.0488929097
 Se         8.6858548555       20.9174611245       23.9664220364
 Se        30.1728965422        8.6870182782       20.9430757320
 Se        11.7060973678       14.9419118154       33.3245442520
 Cd        31.8501717451        7.2933573470       28.6690600215
 Cd        34.6281723903       10.5111861613       28.7924307382
 Cd        37.4476022154       13.4194808661       28.7914619663
 Cd        40.7354491094       16.1483209846       28.6876899684
 Cd        37.7187314781       13.6141267264       16.8044514433
 Cl        36.5737862159       39.6726744148       31.1188805919
 Se        27.0317078045       33.2645960002       36.2725756821
 Se        30.1801155071       36.1765292678       36.2802688335
 Se        27.1126845085       24.0048261032        8.6723903057
 Se        30.1702493102       27.1572409834        8.7047906509
 Cd        21.6490225464       34.1459703537       40.9223649808
 Se        17.8220001296       36.3168305967       11.6244547127
 Cd        34.7335449058       25.5329314039       31.6544731331
 Se         7.9919736771       19.2264383365       13.6249729351
 Se        11.6468501095       23.7352650487       11.6427400076
 Se        14.7714641503       26.9700777492       11.6568626687
 Se        17.9250050126       30.0673571092       11.7092376434
 Se        21.0195659810       33.2271230188       11.6404588438
 Cl        17.1367575977       30.8589967330       41.4480238780
 Cl        12.2547588861        5.6598219552       23.0290409005
 Cd        13.1284314852       10.3322295229       25.4032716396
 Cd        16.3658744156       13.2692766580       25.5227024924
 Cd        19.4185203136       16.3333198891       25.5435671157
 Se        27.0984804896        8.7156547083       17.8817535599
 Cl        20.9953240779       32.3375849495       42.5521042611
 Se        24.2626270902       36.3349482688       11.6126205417
 Se        28.7768749315       40.0101710867       13.6381558573
 Se         8.7961388197       14.7903123843       30.2594704691
 Se        21.2746924443       39.5481802036       11.7284268918
 Cd        37.6808615777       28.6279576788       31.6763036337
 Cd        25.0211890660       35.2699848863       41.0591452479
 Cl         5.9023255889       26.5567296112       14.6820217911
 Se        14.8545728972       11.8403700890       20.9226872531
 Se        17.9181230702       14.8231981517       20.9608725008
 Cl         5.4615093957       32.2548825555       27.0193397175
 Se        33.1744753154       27.0732029660       11.8608051459
 Cl         5.6604062935       12.2502642944       23.0342472159
 Se        17.8738474699       30.1175673881       23.9641148492
 Se        15.0847064437       17.8676021972       39.4726303679
 Cl        22.9957481301       35.8604304009       42.2420512524
 Cd        37.8191878517       13.1051350589       22.6165808271
 Cd        40.9000490191       16.3776040444       22.5733941381
 Se        24.0128827376       24.0234869765       30.1141868572
 Cd        40.5546216493       31.2122145300       31.1934116740
 Se         8.6717522788       30.2162934414       14.8158496907
 Se        11.8675187586       20.9060330764       14.8384797672
 Se        14.8315033771       24.0139894961       14.8158314307
 Se        17.8813988846       27.0434699418       14.7843129397
 Se        20.9507628758       30.1165382183       14.7784931997
 Se        23.9781555745       33.1647859537       14.7983330058
 Se        27.0845296749       36.1288525304       14.8263737833
 Cl         5.4370931308       15.7251765219       20.9949828016
 Se        30.0748480041       14.9001849123       33.1082423485
 Se        17.9008761371       21.0497998877       39.2973775281
 Se        20.9629277894       24.0830958289       39.3291041081
 Se        23.9950855157       27.1118185358       39.3204823118
 Se        36.1580494609       30.4031327064       11.8451040321
 Cd         6.8883320525       12.7898209209       25.0444580614
 Cd        10.3418206816       13.1183133970       25.3933886655
 Cd        13.2805809333       16.3460455578       25.5201478319
 Cd        16.3601628937       19.3977687791       25.5344711957
 Cd        19.4121084115       22.4655264730       25.5270016494
 Se        27.0781137328       30.1781411584       39.2961666112
 Se        30.2585772868       33.1891500655       39.2849573687
 Se        23.7711597312       11.6394127094       11.6465405473
 Se        33.2916509331       11.6888493263       20.9588996486
 Cl         5.4879093183       26.9892235613       32.3167192596
 Se        27.0088159519       14.7651770129       11.6991120965
 Se        17.9029310729       27.0321972965       27.0171482349
 Se         7.9724488757       13.6233142624       19.2899360534
 Se        11.6989385120       17.7097414384       17.7230960586
 Se        14.8444222044       20.9479550767       17.8998019090
 Se        17.8896613580       23.9933096963       17.8676433420
 Se        20.9409848726       27.0572092951       17.8536253163
 Se        23.9973397435       30.1131139632       17.8596030513
 Se        20.9624468706       30.1039629752       27.0060426451
 Cl        23.0246410565       12.2404974605        5.6665055967
 Cl        26.7178801088       14.6698480973        6.0298032507
 Cl        29.8753835952       17.9413788681        5.7598644796
 Cl        33.3471087951       21.3832496932        5.9391283969
 Cl        35.8454954826       25.0040334878        5.7142806162
 Se        11.8582867635       17.5805946246       11.8407930395
 Se        27.0407471996       33.1592300385       17.8888000501
 Se        30.2826988911       36.3095446104       17.7131422783
 Se        34.4290151678       39.9861903385       19.3378551381
 Se        14.8906373370       20.9296113607       11.8578322649
 Se        13.7673667373       34.2392439911       34.2157383133
 Se        20.9246796125       33.2002492056       23.9609026818