     935
 i =      331, E =    -21689.5214809435
 Cl         9.9660431637        9.2260596349       12.0164748364
 Cl         9.7485945947       12.7074877945       14.9948504753
  H         8.9820742833       14.1920873852       12.9128898237
  H        11.0569389344       14.3443292851       17.9735220162
  H         9.9426429966       19.6571937856       17.0868791184
  H        10.9411532449       20.8980006910       24.2119258961
 Cl         9.6585946910       23.0911011653       21.2306448991
 Cl         9.5889464475       24.0910110891       25.5688447928
 Cl         9.6206276902       28.5778408201       26.8372496815
 Cl         9.7528630479       29.2592168357       31.3471364853
  H         9.8325173087       32.4891877926       30.1502656653
  H         9.9935342042       32.9106545876       35.3755387803
 Cl         9.5232493759       33.9379723336       32.0712619906
 Cl         9.3051101636       34.7737660260       36.4277520321
 Ga        10.8529994589       10.6941444580       10.7710920821
 Ga        11.1890586868       13.4702982373       13.5545331887
 Ga        11.2635099487       16.3178610514       16.4781887790
 Ga        11.2743141807       19.3338732675       19.0913738698
 Ga        11.3423556322       22.0313482821       22.0388934880
 Ga        11.3453596826       24.9784239181       24.7177152190
 Ga        11.3388574389       27.6513613750       27.7397731352
 Ga        11.2665984621       30.5126808995       30.4355017946
 Ga        11.1777767299       33.2836681760       33.2864462849
 Ga        10.9333586788       36.1430603247       35.9941780490
 Cl        11.9520500572        9.9585177356        9.1158237024
 As        12.4571692379       12.0221479162       12.1554935257
 Cl        12.6231287345       12.5714914289       17.6700572332
 Cl        12.5212071264       14.7827546558        9.6637740663
 As        12.5299440955       15.0338466648       14.9173367040
 Cl        12.7258650011       15.2125265852       20.4713480381
 Cl        12.7086902070       17.7565817838       12.4339087374
 As        12.6136982722       17.7869821253       17.8441719504
 Cl        12.6753993845       18.1542488632       23.2303331150
 Cl        12.7005770720       20.4841076392       15.2956679784
 As        12.6395221089       20.6934868173       20.5429812035
 As        12.6824494091       23.5056182701       23.3909054504
 Cl        12.6542968597       23.7922636259       28.9309800136
 Cl        12.8658495033       26.1112810908       20.7536162590
 As        12.6483391853       26.2922597657       26.2566761372
 Cl        12.6261204525       26.5989182868       31.6674704771
 Cl        12.7586466681       28.8962829571       23.7142556461
 As        12.6609446819       29.1655360150       29.0306460228
 Cl        12.6806172055       29.3965341588       34.6487416123
 Cl        13.0463813065       31.7349019104       26.2333039721
 As        12.5596487796       31.8775230104       31.9043771637
 As        12.4273783024       34.8478799071       34.5362876318
 Cl        13.1821173827       37.5435462220       31.8888253477
 Cl        12.0711136836       36.5053571954       37.7957534875
 Ga        13.8016371783       10.6906918015       13.6362723782
 Ga        13.8011502561       13.4744702846       10.7758096237
 Ga        13.9504561433       13.6378672871       16.3245655186
 Ga        13.9590296778       16.4082197938       13.5516876974
 Ga        14.0344927556       16.4168645819       19.2512196347
 Ga        14.0336238076       19.1770874074       16.4139464466
 Ga        14.0391832499       19.2622978385       21.9508655946
 Ga        14.1178449058       22.0440399480       19.1874159138
 Ga        14.0452592073       22.1117749135       24.8119612088
 Ga        14.1273202738       24.8777487697       22.0267969202
 Ga        14.0376545691       24.8874826262       27.6569116368
 Ga        14.1135841736       27.6604751559       24.8939435782
 Ga        14.0370704488       27.7500509107       30.4973448534
 Ga        14.1291754570       30.5184350389       27.6635227881
 Ga        13.9648023113       30.5231987446       33.2928175638
 Ga        14.0430486302       33.2887412918       30.5857632926
 Ga        13.8005073929       33.4530386366       35.9044254221
 Ga        14.0320021257       36.1512221831       33.2868292214
 Cl        15.2927493965        9.4604309854       12.6765795268
 Cl        15.7969957157        9.3610668553       17.4846430178
 As        15.2662955442       12.2023638390       14.9850632143
 As        15.2574317579       14.9648574637       12.1772825376
 As        15.3557925647       15.0336346579       17.8009442455
 Cl        15.5655720796       15.3066916952       23.2055988788
 Cl        15.8687526592       17.4034840207        9.2615387585
 As        15.3849705057       17.8173700125       14.9901896269
 As        15.4355755856       17.8621482681       20.5968106157
  H        16.5485787006       17.1596889519       26.0343791131
 As        15.4475805832       20.6342216765       17.7771972058
 As        15.4062166284       20.6376937640       23.4502461479
 Cl        15.5023940839       21.0642094863       29.0233351347
 Cl        15.6438926340       23.2895511099       15.1713922409
 As        15.4889080659       23.4234071578       20.6632190186
 As        15.4137946609       23.4868071963       26.2627304094
  H        16.6037401359       22.9079931059       31.8653866262
  H        14.6748582291       25.6950689483       18.6160990800
 As        15.4767391202       26.2915008850       23.4592383014
 As        15.4039006700       26.2758626809       29.1155991557
 Cl        15.5636560309       26.5672014451       34.6489916558
 As        15.4881154467       29.0381112932       26.3290047946
 As        15.3942232677       29.1275194323       31.9257306729
  H        15.4912656855       28.2172853436       36.4168897901
  H        14.6852324236       31.3832247741       24.3800009348
 As        15.4429430637       31.9332318600       29.1218652914
 As        15.3128955561       31.9583342472       34.7191280636
 Cl        15.6216074378       34.7183099646       26.6381899120
 As        15.4291648772       34.6739989113       31.9765722814
  H        14.0022959789       35.3137789789       37.4178677687
  H        14.6806902477       37.1310391526       30.0090531932
 Ga        16.7214257643       10.9298785911       16.3872062128
 Ga        16.6405719906       13.6304673499       13.6277412124
 Ga        16.8195223306       13.7084844827       19.1751231494
 Ga        16.7295120720       16.3141771325       10.8676244007
 Ga        16.8055873823       16.4162509490       16.4088201217
 Ga        16.8893680515       16.4894677154       21.9549233576
 Ga        16.8884239503       19.1819394045       13.6972873076
 Ga        16.8211205887       19.2580192203       19.1902258370
 Ga        16.8913517996       19.2597942979       24.7893968548
 Ga        16.8948307096       22.0268210131       16.4098695691
 Ga        16.8866332862       22.0323623148       22.0997808085
 Ga        16.8228843177       22.1136961585       27.6611126654
 Ga        16.8967604285       24.8002172960       19.2701936694
 Ga        16.8294280944       24.8859387296       24.8834838660
 Ga        16.8874959666       24.8853058546       30.4268857754
 Ga        16.8901292275       27.7335475252       22.1065031687
 Ga        16.8841845820       27.6537256242       27.7372127552
 Ga        16.8080979961       27.7306330481       33.2914155902
 Ga        16.8932983010       30.4316177414       24.9627346373
 Ga        16.8075716679       30.5166726426       30.5171767251
 Ga        16.5722692122       30.4243947050       36.0607608972
 Ga        16.8801563527       33.3648746057       27.7537048098
 Ga        16.8074270759       33.2928482884       33.3669731736
 Ga        16.8077551772       36.0562272875       30.5882492711
  H        18.5253154972       10.5715778022       14.6929370744
 Cl        17.9926811281        9.9572025706       20.6710123318
 Cl        17.9718621703       12.4200181310       12.4223921478
 As        18.1472579501       12.2342646080       17.8341401943
 Cl        18.2044078137       12.5334674239       23.2350207530
  H        17.5092827421       14.0930541824       10.1433568303
 As        18.1331888072       15.0090504642       15.0074753978
 As        18.2576560402       15.0787200069       20.5766236412
 Cl        18.2635293387       15.4134477877       26.0827276046
 As        18.1521307913       17.7956135516       12.2086560987
 As        18.2191523425       17.8503633725       17.8086496233
 As        18.2694470489       17.8737982918       23.3943835376
 Cl        18.1015148909       20.6783752912       10.0003759661
 As        18.3019421419       20.6414440704       15.0253039275
 As        18.2385469072       20.6477505658       20.6388718530
 As        18.1822662078       20.6517922217       26.2801412098
 Cl        18.2823194721       21.0281626448       31.7655600812
 Cl        18.6297027290       23.4548985411       12.4508890711
 As        18.2672814374       23.4480239781       17.8380694436
 As        18.2462106839       23.4747774832       23.4923169762
 As        18.2710722134       23.4934761803       29.0415732052
 Cl        18.5495858903       26.1061984728       15.2235926622
 As        18.2135835419       26.3306291683       20.6167566516
 As        18.2551829433       26.2911469194       26.2803728561
 As        18.1643471926       26.2733590412       31.9134891300
 Cl        18.5658895125       26.8995859398       37.7449792557
 Cl        18.6568583460       29.0640930432       18.0189680699
 As        18.2875161607       29.1348419975       23.4908476144
 As        18.2173865923       29.0974242078       29.1397732307
 As        18.1329580633       29.1260593591       34.7290076765
 Cl        18.5949202200       31.7707755278       20.7849647507
 As        18.2037494220       31.9303929314       26.3127568129
 As        18.2038116745       31.8985144672       31.9642481738
 Cl        17.5288839426       31.2005977548       37.8121463471
 Cl        18.5214256236       34.6554340404       23.7450622931
 As        18.2669567655       34.7835099540       29.1387932564
 Cl        15.2062483637       37.1407140589       34.7962406781
 Cl        17.8353620039       37.5708686887       31.6530359500
 Ga        19.4313476990       10.8476830634       19.3437394438
 Ga        19.5067438631       13.6289417071       16.4142976557
 Ga        19.5925141534       13.6493241366       22.0286700131
 Ga        19.5124881034       16.4159954865       13.6317657622
 Ga        19.6607926734       16.4753912521       19.1804841923
 Ga        19.6609397089       16.4898990245       24.8171052538
 Ga        19.5049086391       19.2715135606       10.8538157370
 Ga        19.6654914477       19.2454223616       16.4633457734
 Ga        19.6655924760       19.2643934358       22.0283512862
 Ga        19.6003191389       19.2553557695       27.6613745264
 Ga        19.7513529656       22.0283764624       13.6340012964
 Ga        19.6590102699       22.0457594671       19.2602256444
 Ga        19.6563896587       22.0384410110       24.8818162740
 Ga        19.6605482987       22.1146172692       30.4975167693
 Ga        19.7409292162       24.8149491080       16.4878930554
 Ga        19.6018146801       24.8893540067       22.0365066382
 Ga        19.6655629389       24.8853449206       27.6601971247
 Ga        19.5806964902       24.8804864279       33.2892193872
 Ga        19.7479403079       27.6654561627       19.2645315666
 Ga        19.6674602064       27.7259552758       24.8912112999
 Ga        19.5933194612       27.6631533128       30.5206370615
 Ga        19.5870091479       27.7488706786       36.0628729126
 Ga        19.7479229067       30.5088829205       22.1098797281
 Ga        19.5990608880       30.5100387354       27.7280992748
 Ga        19.5814298715       30.5009881318       33.3599329104
 Ga        19.6800435060       33.2959549928       24.9633950586
 Ga        19.4970692988       33.2025206756       30.4274753347
 Ga        19.8258246040       36.1492281970       27.8201554674
 Cl        21.4763618500        9.3369679704       23.0188943217
 Cl        20.6432865491       12.2358308369       15.2184956592
 As        20.9512359995       12.2392954917       20.6478902074
 As        21.0094323896       15.0054557600       17.7870791147
 As        20.9998745076       15.0239137117       23.4676560379
 Cl        21.1354727769       15.2424842146       28.8390496397
 Cl        20.5733198636       18.1880556549        9.3426499233
 As        21.0080049467       17.8095229630       15.0170894171
 As        21.0446477780       17.8430472538       20.6464798470
 As        21.0229923311       17.8833345344       26.2592990681
  H        22.0305845836       17.1084927619       31.5650002141
 As        21.0644168747       20.5964632541       12.2199966034
 As        21.0543934818       20.6582055750       17.8670367465
 As        21.0545994096       20.6727626509       23.4507664708
 As        20.9839374121       20.6459820507       29.1053758029
 Cl        21.1492521923       20.9763692878       34.6319844986
 As        21.1082824001       23.4008223818       15.1165772595
 As        21.0420792932       23.4998482162       20.6474093829
 As        21.0487944194       23.4466874067       26.2949310289
 As        21.0296401433       23.5140758538       31.9122495522
  H        21.9123236716       22.6913406646       37.3397749838
  H        20.6693299166       26.4440847430       13.5450037719
 As        21.1205971913       26.2594712106       17.8698960869
 As        21.0271568820       26.2830309608       23.4733124115
 As        21.0171367999       26.2799684122       29.1170051766
 As        20.9298886121       26.2332526691       34.7516564976
 As        21.1092229082       29.0484939331       20.7296161508
 As        21.0431345052       29.1089858983       26.3325792160
 As        20.9549174947       29.0494395249       31.9802592514
  H        20.5522651510       31.8968413560       19.0369754624
 As        21.0842081425       31.9260876780       23.5230343529
 As        21.0305895386       31.8811679379       29.1429347395
 Cl        20.7612065581       31.6517133786       34.7551755520
 As        21.0711383716       34.6744773746       26.3659528729
  H        20.2303172533       36.6858481819       23.9835540403
 Cl        21.0482640952       37.1710675933       29.2384601890
 Ga        22.4395276583       10.9398949129       22.0160107643
 Ga        22.3525446937       13.6292899540       19.2623932323
 Ga        22.5102597440       13.7089809017       24.8148479205
 Ga        22.3676559167       16.4906605461       16.4873040406
 Ga        22.4302905909       16.4133597693       22.0526920417
 Ga        22.4409421273       16.4849052821       27.6488102369
 Ga        22.4321625743       19.2564465971       13.6926863808
 Ga        22.4357494044       19.2657626115       19.2705413454
 Ga        22.4367544445       19.2603384053       24.8807038893
 Ga        22.4410432857       19.2542448194       30.4284490993
 Ga        22.5191257993       22.0264126215       10.9393201776
 Ga        22.5129004695       22.0330609473       16.4918551552
 Ga        22.4425196532       22.1060692337       22.0442782943
 Ga        22.4327919940       22.0351895916       27.7324793541
 Ga        22.4356651774       22.1026843545       33.2873909265
 Ga        22.5146732154       24.8117378142       13.7830424109
 Ga        22.5128453051       24.8871341682       19.2677529497
 Ga        22.4318387694       24.8765098385       24.8814867379
 Ga        22.4393089260       24.8895266975       30.5147882084
 Ga        22.2763740325       24.7278281726       36.0638052246
 Ga        22.5219992614       27.6652670703       16.4772796098
 Ga        22.5118437240       27.6603684949       22.1097131026
 Ga        22.4364890293       27.6685171249       27.7357540249
 Ga        22.3597741454       27.6467235119       33.3645870235
 Ga        22.5199030782       30.4338797617       19.3423736060
 Ga        22.4466446041       30.5011524031       24.8923957216
 Ga        22.3624000665       30.4353770069       30.5852954776
 Ga        22.5257452911       33.2922333409       22.1138861373
 Ga        22.4501503577       33.2880748528       27.7362544260
 Ga        22.4366527531       35.9882899629       24.8870570637
  H        24.6335981757       10.3969814754       20.9702563599
 Cl        23.6789711727        9.8826842784       26.1586525889
 Cl        23.5887129868       12.3013147049       18.0819620397
 As        23.8388229709       12.2832411005       23.4389032428
 Cl        23.8326250804       12.4666452395       28.8303672910
  H        24.4596336734       15.2184892530       16.1822386288
 As        23.7887948690       15.0438897054       20.6371454027
 As        23.8467932364       15.0827554967       26.2652302202
 Cl        23.7548930067       15.4237262250       31.7567707826
 Cl        23.6928706413       18.0316065319       12.4289490688
 As        23.7927107380       17.8936679181       17.8706149320
 As        23.8171596344       17.8598660566       23.4533478873
 As        23.8394832566       17.8488048797       29.0802788046
 Cl        23.8633272161       18.0388618568       34.6032400067
  H        24.1763664819       20.1823261168       10.6564108052
 As        23.8535231498       20.6582043265       15.0766851433
 As        23.8472417574       20.6947690202       20.6451780208
 As        23.8282116965       20.6597568698       26.3040638282
 As        23.7585033983       20.6190390706       31.9117707603
 Cl        24.0720133431       21.2769896890       37.6677184413
 As        23.8520643221       23.5284541113       12.2824365283
 As        23.8921350769       23.4793557245       17.8717705230
 As        23.8441416920       23.4833027760       23.4789659366
 As        23.8162683015       23.4540252078       29.1190123203
 As        23.8209489658       23.4930455825       34.7022600771
 Cl        24.1480160981       26.1510125582        9.5723328568
 As        23.9208143327       26.2991194261       15.0512791421
 As        23.9083581582       26.2922750546       20.6808427844
 As        23.8098686424       26.2667229292       26.2958326488
 As        23.8226274708       26.3107526028       31.9451592589
 Cl        23.0524756500       25.7262634484       37.8028527808
 Cl        24.2904621723       29.0199936560       12.3691447425
 As        23.8872064821       29.1387296341       17.8465684116
 As        23.8693110155       29.1066050757       23.4839862925
 As        23.8007345265       29.0744024183       29.1590418597
 Cl        23.4837304670       28.8132669085       34.8044640535
 Cl        24.2927971818       31.7919564586       15.1182719577
 As        23.8904400428       31.9382111553       20.6361426512
 As        23.8376381070       31.8532192169       26.3508265204
 Cl        23.5197543926       31.7088870125       31.8765373679
 Cl        24.1819614417       34.6749068448       18.0523742207
 As        23.9242680247       34.7184391148       23.4907137712
 Cl        23.7692010504       34.4655686587       28.9413855416
 Cl        24.3143165992       37.4869615032       20.9482772251
 Cl        23.3901713850       37.6069044487       25.8699819923
 Ga        25.1343953956       10.8496887336       24.8981320495
 Ga        25.2114044696       13.7040586710       22.0427695933
 Ga        25.2107329939       13.6322288470       27.6750152844
 Ga        25.1467560172       16.4768939179       19.2625608596
 Ga        25.2169928639       16.4832701661       24.8818580548
 Ga        25.2099430790       16.4156723869       30.5146026444
 Ga        25.2196814650       19.2657328454       16.4827582133
 Ga        25.2155416573       19.2611448325       22.0434005314
 Ga        25.2177886829       19.2569396825       27.7232654129
 Ga        25.1376185135       19.1717486589       33.2853981929
 Ga        25.2168259623       22.1168879958       13.7092384384
 Ga        25.2970097912       22.0973826578       19.2610801619
 Ga        25.2192948854       22.0410687531       24.8836119283
 Ga        25.2038347320       22.0272154804       30.5207647799
 Ga        25.2183924494       22.0401691593       35.9975786649
 Ga        25.2937158935       24.8852795715       10.8504324260
 Ga        25.2972443183       24.8870972590       16.4770142097
 Ga        25.2882427811       24.8797629715       22.1011070442
 Ga        25.2073839814       24.8108550539       27.6603132643
 Ga        25.2160745849       24.8803880460       33.2957632420
 Ga        25.3848589595       27.6557428934       13.6359344556
 Ga        25.2905144030       27.7358218719       19.2608710155
 Ga        25.2201473144       27.6664039626       24.8876059003
 Ga        25.2072095415       27.5869397254       30.4335759149
 Ga        25.3804156484       30.5128724487       16.4887826125
 Ga        25.2841852043       30.5112649002       22.0386608090
 Ga        25.2205196797       30.4336343032       27.7382178176
 Ga        25.3754782024       33.3531470219       19.2713943860
 Ga        25.1324818607       33.1290262347       24.7946617006
 Ga        25.4564542170       36.1419448696       22.1888734479
 Cl        26.2554058724        9.4272129200       23.7442853600
 Cl        27.1666604604        9.1970421611       28.5030209627
 Cl        26.4148781412       12.3697741734       20.8506248008
 As        26.5820219147       12.2230528932       26.2906352525
 As        26.6228232026       15.0473436100       23.5009282464
 As        26.5689778713       15.0092041363       29.1281522448
 Cl        26.7862215082       15.3224193286       34.7265551342
 Cl        26.3247626013       17.8969607683       15.2347703518
 As        26.6226912508       17.8617580892       20.6404250992
 As        26.6085974907       17.8425534643       26.3284806208
 As        26.6032920999       17.7879293425       31.9605082194
 As        26.6859564103       20.6645696130       17.8513520017
 As        26.6180719889       20.6378754325       23.4877367984
 As        26.6127182355       20.6272063531       29.1489652869
 As        26.5308378527       20.5282914166       34.7056899399
 Cl        26.3686785480       23.4468443288        9.6383254491
 As        26.6950497668       23.4871665477       15.0786605554
 As        26.6810564689       23.4733433478       20.6983594371
 As        26.6408262395       23.4455178093       26.2787784228
 As        26.5747684301       23.3997376617       31.9587398341
 As        26.7709453048       26.2407280328       12.2354729517
 As        26.6789913240       26.3050326174       17.8808533003
 As        26.6597182379       26.2900303656       23.4915464094
 As        26.5841725733       26.1987701129       29.0465735831
 Cl        26.3912487270       26.0691813777       34.6599018558
 As        26.7309051605       29.0428755423       15.1241745126
 As        26.7129584914       29.1189461119       20.6554760813
 As        26.5895030633       29.0550807190       26.2954033740
  H        27.0141308207       29.2354101735       30.7117796003
  H        26.0375078751       31.7087530088       13.4713947388
 As        26.7710198112       31.9438571481       17.8707714458
 As        26.6901184685       31.8911674045       23.4528142696
 Cl        26.4479253037       31.5763934611       29.0822241794
 As        26.7536036317       34.7188627437       20.7076528881
  H        25.9368409812       36.9307634179       18.5088723575
 Cl        26.6575087250       37.2146676431       23.5867127693
 Ga        28.0754450867       10.9264399706       27.6589777447
 Ga        27.9888106148       13.6382465160       24.9623895948
 Ga        27.9168087414       13.6287402387       30.5908992328
 Ga        27.8967907363       16.6410118111       22.2699712951
 Ga        27.9850476454       16.4036702601       27.7460612556
 Ga        28.0696604331       16.4086523493       33.3703072556
 Ga        28.0692062070       19.2658294947       19.2674048401
 Ga        27.9906875738       19.2546660959       24.9503405031
 Ga        27.9904129192       19.1913829248       30.5842545999
 Ga        27.9096317906       19.0922523691       36.0644097509
 Ga        28.0671448564       22.1813547655       16.5609086213
 Ga        28.0569126385       22.0349779658       22.1082643915
 Ga        27.9919822634       22.0362568507       27.7436852350
 Ga        27.9747169335       21.9539520140       33.3535918977
 Ga        28.1354057458       24.8865906588       13.7038975426
 Ga        28.0613088429       24.8943703382       19.2797776075
 Ga        28.0623486215       24.8849595185       24.8889033683
 Ga        27.9132553138       24.8040235361       30.5151590956
 Ga        28.1502764351       27.7341179325       10.9376323561
 Ga        28.1408402646       27.6638891328       16.4906049299
 Ga        28.0702832330       27.6635665625       22.0483811729
 Ga        27.9820886106       27.6558777546       27.6687915600
 Ga        28.1389456914       30.4487971946       13.7820828560
 Ga        28.1513486436       30.5249853102       19.2586650642
 Ga        27.9901255385       30.4409265100       24.8887992059
 Ga        28.2227121183       33.3542382086       16.4907085292
 Ga        28.1459391270       33.2913666338       22.0416621369
 Ga        28.1340813464       36.0630920735       19.2594020161
  H        29.3707976138       10.6365420048       32.7235396310
 Cl        29.2224785904       12.3460502687       23.7322879400
 As        29.3563953923       12.2414082854       29.2217710989
 Cl        29.5087039742       12.2444660891       34.4384931090
 As        29.4022695751       15.0248055891       26.3611267515
 As        29.3910907004       14.9713960998       31.9728958284
 Cl        29.7204143867       15.7829470688       37.8073291460
 Cl        29.2832841050       18.0149457552       18.0221950869
 As        29.4641703072       17.8750636419       23.5696023281
 As        29.3734211632       17.8029014010       29.1566917850
 As        29.4785557913       17.8421080932       34.7724169602
  H        30.2095721197       21.0347095444       16.1356199711
 As        29.4516724616       20.6621782874       20.7047254558
 As        29.3899845502       20.6341296222       26.3477840784
 As        29.4164375441       20.6316311578       31.9549516901
 Cl        28.5890055904       20.2410387375       37.7727192109
 Cl        29.3782769327       23.5583193393       12.5461871327
 As        29.4946166502       23.5554117852       17.9203257337
 As        29.4344416397       23.4560217215       23.4974565449
 As        29.3853354340       23.4563937606       29.1462352236
 Cl        29.0607380545       23.2043419483       34.7542592915
  H        30.0400133782       26.1458007102       10.5567750191
 As        29.5205901226       26.3124687695       15.0785173489
 As        29.4866509482       26.2841212054       20.6529444498
 As        29.4430722333       26.3005906109       26.3121070163
 As        29.4985591881       29.2026392668       12.2765266367
 As        29.5228474917       29.1135174303       17.8473532453
 As        29.4196745990       29.0912489685       23.4694753286
 Cl        29.0848009291       28.8826443717       29.0576346844
 Cl        29.7168254942       31.8792305095        9.6334806527
 As        29.5442452434       31.9619647177       15.0180405079
 As        29.5843598066       31.9069926891       20.6803731358
 Cl        29.8945080470       34.7684755740       12.4478999770
 As        29.6051239938       34.7778885418       17.8609005418
 Cl        29.1018647809       37.6752465676       20.2451172645
 Cl        30.2135427707       37.6358342161       15.3416803139
 Ga        30.7628142744       10.9207582860       30.6767013570
 Ga        30.7597026008       13.6307213890       27.8231303379
 Ga        30.8365281420       13.5620441922       33.3700179207
 Ga        30.8355014566       16.4018124368       24.9743738736
 Ga        30.7566362302       16.4057239299       30.5988321096
 Ga        30.9160305432       16.4124064093       36.1324935249
 Ga        30.8361493062       19.2626025345       22.1164918014
 Ga        30.7630875448       19.1812651041       27.7402985402
 Ga        30.8355929846       19.2492968792       33.3655718179
 Ga        30.8390097168       22.1056849534       19.3308033076
 Ga        30.7736814442       22.0494821030       24.9585929222
 Ga        30.7594921284       21.9528462719       30.4434983373
 Ga        30.9096873565       24.9521616446       16.4926293409
 Ga        30.8448000780       24.8150315740       22.0446693813
 Ga        30.7717185166       24.8721082329       27.7427342895
 Ga        30.8517252991       27.7460838460       13.6445648682
 Ga        30.9066845096       27.7325415804       19.2654303354
 Ga        30.7736569809       27.6453109936       24.8062951749
 Ga        30.9147432879       30.5953725100       10.8503026201
 Ga        30.9228145097       30.4973735099       16.3991405779
 Ga        30.9091190848       30.4444429453       22.1074430493
 Ga        31.0136583427       33.3647408975       13.6378938806
 Ga        30.9252806255       33.2810999521       19.1838812711
 Ga        31.1709938125       36.1367411899       16.5647031649
 Cl        31.5683316805        9.2570424598       29.5753296410
 Cl        31.9729669957       12.2977206819       26.6249848952
 As        32.2964880552       12.2107671225       31.9832450578
 Cl        32.1243695485       12.2636609782       37.3405967763
 Cl        32.1057590904       15.1749154244       23.7677229170
 As        32.1768847227       15.0125041723       29.2100847424
 As        32.1856233409       14.9116900900       34.8049358553
 Cl        32.0537602337       17.9856268500       20.8979014999