     381
 i =       30, E =    -10679.9560876820
 Cd        16.4990847325       22.5200938619       16.5167697428
 Cd        19.5876568899       25.5883086265       16.4381668223
 Cd        22.6042442993       28.5892900305       16.2629285720
 Cd        17.0644117637       25.3923090686        7.7441670670
 Cd         7.4362038271       13.3613975741       16.2816979137
 Cd        10.4210121253       16.4026245277       16.4484693541
 Cd        13.4612626207       19.4608012285       16.5400050623
 Cd        19.4781093408       22.5373171078       19.4770433236
 Cd        22.5617102465       25.5301932642       19.3686077698
 Cd        25.3679852761       28.2984302253       18.9663409917
 Cd        13.2012173451       10.1637633733       13.2066637152
 Cd         7.7480343573       10.5653588812       18.9312021285
 Cd        10.4885273281       13.4568497281       19.3598761676
 Cd        13.4782472045       16.4838490696       19.5162277015
 Cd        16.4611750660       19.5367012743       19.5525614644
 Cd        22.4939459495       22.5043235970       22.4306203004
 Cd        25.7702825945       25.8000568073       22.6398845926
 Cd        16.3402513032       13.3470441020       13.3650264644
 Cd        10.2004421982       16.0143643344       10.2432469567
 Cd        10.7379869234       10.6775700758       22.2554631515
 Cd        13.5836287537       13.5006003428       22.4959667007
 Cd        16.5454367397       16.5203557203       22.5399029634
 Cd        19.5145915612       19.5117652158       22.5385519106
 Cd        25.2947977951       22.2504701684       25.2702562335
 Cd        19.5944474433       10.4044444570       19.5843885582
 Cd        13.3650147518       10.2160430628       25.7772227611
 Cd        16.6415626651       13.4327965802       25.5208477464
 Cd        19.5800428296       16.4112209521       25.5894578974
 Cd        22.5200114918       19.3505377925       25.5200247161
 Cd        22.6531169485       13.3607932153       19.6692813819
 Cd        28.5953892083       16.2573130636       22.5672277889
 Cd        22.5355204565       16.5239330477       16.5034861103
 Cd        22.2536716856        7.6481711841       13.9085223745
 Cd        22.6380724422       22.6488015901       16.3260160904
 Cd        19.7540721536       13.3812065412       28.5688819669
 Cd        22.6176116231       16.2505205461       28.5643460130
 Cd        25.4148843388       18.8967935434       28.2527048252
 Cd        19.4885443307       16.4965306780       13.4636585442
 Cd        19.4165382450       16.5667180058        7.3603296170
 Cd        10.6552144915        7.6885168683       18.9615942457
 Cd        13.3807472615       16.2390841089        7.4387112846
 Cd        22.2498573884       10.7015455260       10.7230986604
 Cd        16.5597617296       19.4174294706        7.3611430229
 Cd        28.2463617699       25.4254656338       18.9664928309
 Cd        22.8242481686       13.1989879367       25.7978696293
 Cd        28.5710457231       19.7758542333       13.4050001305
 Cd        13.9199200747        7.6177394527       22.2461103047
 Cd        13.3626159813       13.3416528929       16.3552496521
 Cd        25.7708515532       19.9742585095       10.2294643288
 Cd        25.5895300991       16.4158346418       19.5456482832
 Cd        16.4356275765       10.4066408853       16.4272931359
 Cd        17.0467131041        7.7467245376       25.3824590226
 Cd        19.9314517775       25.7851655523       10.2336973363
 Cd        19.5349735294       19.5406996882       16.4476908055
 Cd        16.6077261472        7.3512904316       19.4490103434
 Cd        19.9852038371       10.1810639427       25.8228141060
 Cd        10.6714453462       22.2361145914       10.7278219500
 Cd        13.7335012310       25.2870246762       10.7366676263
 Cd        17.0385518335       28.2655329336       10.6525152157
 Cd         7.7096675945       18.9147067465       10.6559025868
 Cd        13.4892449209       22.4797089005       13.5716927186
 Cd        16.6397504261       25.5350848546       13.5085138080
 Cd        19.7422185730       28.5815356853       13.4138091319
 Cd        16.0536756642       10.1932891301       10.2390598160
 Cd         7.4239606887       16.2245477261       13.4314650465
 Cd        10.4450336719       19.3381995694       13.5092111707
 Cd        16.4000212463       25.5875347047       19.5497256498
 Cd        19.4326561630       28.6489786288       19.4172896357
 Cd         7.3620470535       16.5645146810       19.4355402483
 Cd        10.4160878373       19.5780192355       19.5786084383
 Cd        13.3539550944       22.6367640601       19.6760122177
 Cd        19.3468936959       25.5597106923       22.4906622195
 Cd        22.2345760343       28.3827712979       22.0934430666
 Cd         7.6781492720       13.8412278469       22.1610547380
 Cd        10.4877524108       16.6474213471       22.5207430812
 Cd        13.3646908032       19.6543994672       22.6532944724
 Cd        16.3451797184       22.6513421914       22.6415638329
 Cd        22.2455082480       25.3181814310       25.2712171518
 Cd        22.5347015788       19.5005173231       19.4686986663
 Cd        22.1490844718       13.8467440860        7.6715654906
 Cd        22.4942184025       13.5081770914       13.5544427571
 Cd        19.5008757246       13.4664011992       16.5231792062
 Cd        10.7329515773       13.7512398274       25.3001415914
 Cd        13.5135599560       16.6442002918       25.5494726991
 Cd        16.4458111209       19.5855629359       25.5824473840
 Cd        19.3534007330       22.5383668903       25.5195598659
 Cd        25.7883699733       10.2282570655       13.3564758871
 Cd        13.9121031805       13.7564183640       28.3682028756
 Cd        16.5907884019       16.5554460289       28.6418921797
 Cd        19.4330921624       19.4298615732       28.6385812523
 Cd        22.1541523531       22.1607811313       28.3237244029
 Cd        22.6336204949        7.4339266600       19.7381496769
 Cd        22.5695763008       10.4803109095       16.6344662678
 Cd        25.7913042548       25.8324230393       16.0508080810
 Cd        13.5125726519       10.4269565894       19.3581403772
 Cd        10.1889889386       13.1578225663       13.2125306320
 Cd        25.3069577876       13.7619924457       10.7236805146
 Cd        28.2556472687       17.0821997127       10.6405668907
 Cd        22.5073180463       16.6541028335       10.4814258919
 Cd        18.8939606307       10.5929016264        7.7411138582
 Cd        25.4130628196        7.7508807431       17.0333404071
 Cd        25.8176796859       16.0567805137       25.7608649477
 Cd        25.8303730755       10.2060254740       19.9437126333
 Cd        22.5711562260       19.7533643260        7.4326671790
 Cd        25.5899128853       19.6034252503       16.4300995490
 Cd        25.5256121637       13.4379247208       16.6173990165
 Cd        19.5581408419       19.5724474530       10.4269814977
 Cd        28.5642227476       22.6438308302       16.2627156577
 Cd        19.6797005379       13.3545044272       22.6493871360
 Cd        16.5396060487       13.4583096777       19.4929473351
 Cd        28.6488391967       16.5748625795       16.5626519773
 Cd        10.1873431041       25.7627225417       13.3611877810
 Cd        13.7385075373       28.3361640655       13.9120240081
 Cd         7.6158655105       22.2250762897       13.9042179610
 Cd        13.4149273421       25.5134995217       16.6297756944
 Cd        16.5521688787       28.6406106385       16.5701652276
 Cd        19.5577781474       16.4637453003       19.5455649341
 Cd        22.6407936601       19.6636976437       13.3524257633
 Cd         7.3540958041       19.4268820374       16.5826455004
 Cd        10.4690421874       22.5519888333       16.6342951281
 Cd        16.2331283669       28.5839083430       22.5673360647
 Cd         7.4330642493       19.7371010434       22.6152980787
 Cd        10.1823039875       22.8006615545       22.8139827092
 Cd        13.1787321274       25.8146309927       22.7957664876
 Cd        18.9423388111       28.2999874187       25.3434513933
 Cd        28.3756288582       13.7683677912       13.8931951212
 Cd        16.6473374411       10.4781944598       22.5659325115
 Cd        19.3410678466       13.4767040571       10.4795287826
 Cd        16.4854321473       19.4856927658       13.4673783639
 Cd        19.7193355638       22.6074054205        7.4324100298
 Cd        25.3710185408       17.1177313094        7.7375093892
 Cd         7.7464460870       17.1041011080       25.4166961247
 Cd        10.2423512688       19.9447536322       25.8016298282
 Cd        13.2023417737       22.8115440749       25.8070766385
 Cd        16.0430707347       25.8130663746       25.7609609060
 Cd        13.1944195110       13.1780047216       10.2147168623
 Cd        16.4581625627       16.4470690895       16.4612547656
 Cd        10.6586654049       17.0446413191       28.2860866276
 Cd        13.4285153794       19.7513372383       28.5795235192
 Cd        16.2624110259       22.6252430503       28.5668996230
 Cd        16.6358061769       22.5022112515       10.4875364038
 Cd        22.7944737910       22.8152252643       10.1852404366
 Cd        19.6498359300       22.6440593017       13.3578612475
 Cd        13.4260230441        7.3791652557       16.2614316982
 Cd        25.5207304714       22.5803113074       19.3640928553
 Cd        22.8297609949       10.1888857163       22.8057727727
 Cd        25.8342850457       13.1980796138       22.7933462151
 Cd        16.2613094924        7.3846922379       13.4025244929
 Cd        22.6576274299       16.3545630480       22.6392693299
 Cd        22.8010023073       25.8268034961       13.1940893625
 Cd        25.5469759375       16.6574682122       13.4974858902
 Cd        16.2423645144       13.3811237591        7.4366888124
 Cd        19.7625118070        7.4299903723       22.6203985248
 Cd        19.4527800412        7.3568945947       16.5785508338
 Cd        10.5672722376       28.2409251627       17.0321086519
 Cd        25.5475212350       19.3565166673       22.4874671659
 Cd        28.3451693313       22.2553507699       22.0865988530
 Cd        19.3557014535       10.4500116784       13.5028181712
 Cd        28.5864901108       13.4035168079       19.7065805852
 Cd        13.3573626259       28.5641687719       19.7131801091
 Cd        10.5781108800       18.8811412934        7.7483796653
 Cd         7.4185427479       22.5818803237       19.7448960994
 Cd        10.1686053691       25.7808339015       19.9513535872
 Cd        13.3462354328       16.3267657585       13.3688957118
 Cd        13.8290742349       22.1358952385        7.6744942430
 Cd        25.7977342120       22.8312417257       13.1973052843
 Cd        28.2911347814       18.9592716664       25.3394845067
 Cd        13.4606012142       19.3327138766       10.4846715376
 Cd        28.6413378244       19.4505330246       19.4141587870
 Cd        16.4131365032       16.4158396147       10.4215509473
 Cd        18.9615097518        7.7164025124       10.6460172776
 Cd        10.2392991108       10.1706604124       16.0683445076
 Cd         7.6965160574       25.3570220190       17.0391942797
 Cd        17.0406652595       10.6204726213       28.2535610531
 Cd        18.8981774010       25.4256005840       28.2535720758
 Cd        28.2878839156       10.6293178596       17.0255206050
 Se        17.8935619410       24.2366350357       24.2032978634
 Se        21.0699343251        8.8237314295       18.0183559395
 Se        21.1294840025       24.2137978040       14.8472951032
 Se        21.2782233776        8.6168791047       24.2535165200
 Se         8.8187221680       18.0176944104       21.0543404130
 Se        27.1924719476       18.0551157531       14.9584637767
 Se        27.2110487499       15.0083916418       11.9162609015
 Se        18.0581099384       14.9055895089       21.0985901727
 Se        14.9243886745       21.0400119974       11.8872691896
 Se        14.9371346124       17.9633490941        8.8178451069
 Se        24.2355417623       27.4035762137       14.7442556066
 Se        11.9333247775       14.9906308106       27.2090066146
 Se         8.5984217865       24.2228629084       21.2575835979
 Se        11.8893035881       14.9289442531       21.0649791714
 Se        24.2287319931       21.2425592899        8.6150274741
 Se        20.9876997128       24.1534685424       27.1904639598
 Se        24.1225416735       21.0362123949       21.0135252782
 Se        14.8593205544       24.2108399966       21.1426632898
 Se        17.9483372899       27.1957441227       21.0174321286
 Se        14.7602487676       11.7335541957        8.6419014538
 Se         8.8199070934       21.0413126284       18.0242243501
 Se         8.5967653413       27.3343553592       18.2711697950
 Se        21.1289903746       21.1414732731       11.7850585527
 Se        21.2133519574       24.2535882854        8.6216471606
 Se        18.0317832309       27.1868348679       14.9670175048
 Se        17.9613947553       14.8931902523       14.9040385308
 Se        14.8525750363       14.8492711046       11.7993234235
 Se        17.9995178518       17.9963754475       17.9990948447
 Se        11.7879652568       14.8373662137       14.8733537004
 Se        21.2249238730       27.3892555309       11.7531886398
 Se        21.0130018842        8.7934765724       11.9221602639
 Se        14.8696586577       21.1441183399       24.2112256613
 Se        21.0298089572       11.8770096095       14.9735810575
 Se         8.6730750496       18.2694940624       27.4061668096
 Se         8.8166968462       14.9270394521       17.9941409780
 Se        14.8973817031       21.0831174130       18.0514027285
 Se        17.9883343077       24.1233753098       17.9897754522
 Se        24.2205918458       14.8735438528       21.1388223902
 Se        24.2735692419       14.7772204728       27.3606781694
 Se        14.9796422684        8.7825145892       17.9654839493
 Se        17.9843125872       17.9917034980       11.8805160063
 Se        24.1446963430       27.1262147181       20.9815052863
 Se        14.7616982287        8.5923841468       11.7654088239
 Se        21.0534611073       17.9752307283       27.1848642523
 Se        11.7898952387       21.1276218955       21.1576727983
 Se        27.1223875385       11.8542040917       15.0028266225
 Se        27.3443573467       27.3995232809       17.7299967711
 Se        24.1381797164       20.9876757658       27.1888703718
 Se        24.1224986245       14.9802154916       14.9667193375
 Se        17.9641334827       21.0991936046       21.1006775479
 Se         8.8688843994       24.1330629354       15.0215802802
 Se        24.0872023745       24.1012480480       23.9820945956
 Se        14.9099318407       18.0308031048       21.1096360182
 Se        11.7631825197       17.8724142819       11.8019935680
 Se        18.0140479263       11.8649124472       17.9994573214
 Se        17.7302169359        8.6011364523        8.6646597572
 Se        11.7788011899       24.1944588242       18.1541451443
 Se        24.2331009288       17.9064085243       24.2055107361
 Se        14.8921947448       17.9465849312       14.9085625414
 Se        17.9857943158       21.0651782813       27.1874775111
 Se        14.9194187890       27.1751726797       18.0012111603
 Se        21.0634551542       21.0711981095       24.1201659191
 Se        20.9989904473       27.2219160295       24.0706049262
 Se        17.8902290418       11.7710817434       11.7963204818
 Se        18.0231948636       21.0912745360       14.8929489854
 Se        11.9328013711        8.7692582552       21.0139832759
 Se        11.8434326954       20.9680682254        8.8163967357
 Se        18.1640637763       11.7859472866       24.2176539221
 Se        24.1271316883       18.0109312888       17.9867640703
 Se        11.7296789972       27.3682781225       21.2317879912
 Se        27.1777615164       21.0811291930       17.9782518537
 Se        18.0888904706       24.2130238720       11.7919863395
 Se         8.6665563346        8.5795149758       17.7495294434
 Se        14.9918026973       24.1166015107        8.8207304949
 Se         8.5997921409       17.6934177158        8.6725761107
 Se         8.6336775696       11.7129384757       14.7906274933
 Se        27.4079426927       11.7700754327       21.2295911768
 Se        24.2037707563       21.1451903245       14.8464275659
 Se         8.8166882558       15.0165071374       24.1419046800
 Se        27.3691322050       21.2652740798       11.7546450391
 Se        21.0276740885       18.0249648165        8.8187181550
 Se        17.9610799587       14.9456611649        8.8151578735
 Se        15.0166503702       11.8464667305       27.1047125331
 Se         8.6292945552       21.2201837617       24.2682979302
 Se        14.9839218195       18.0398434697       27.1933332265
 Se        14.9950540465       14.9780473516       24.1219711134
 Se         8.8181619574       11.8477913128       21.0028290842
 Se        11.8119285017       27.0902426403       15.0125508235
 Se        18.0375311965        8.8228198647       21.0670146878
 Se        15.0222103189        8.8917530604       24.1514619043
 Se         8.7747735285       20.9805378216       11.9290762326
 Se        11.7356502262       24.2595310048       24.2635059051
 Se        24.2869716836       11.7477887056       24.2546128202
 Se        11.8763972541       17.9705931562       18.0296770121
 Se        11.7378474019       11.7089972397       11.7500383976
 Se        24.2156302324       18.1102110725       11.7865315769
 Se        14.7698333151       24.2677785812       27.3668777670
 Se        27.1930662970       17.9669409334       21.0167189079
 Se        12.0257661581       11.9078347853       24.0895536208
 Se        24.2468479510       24.2753427324       11.7271235217
 Se        27.4122881393       17.7415886666       27.3302488985
 Se        21.0895331112       18.0396718187       14.8883554100
 Se        21.1544400251       11.7917109449       21.1436116558
 Se        17.9666524432        8.7902948095       14.9571014363
 Se        11.7750347848        8.5820101187       14.7715506387
 Se        11.7768607865       21.2454996792       27.3892385973
 Se        24.2736295855        8.6287564612       21.2402214898
 Se        21.1600420591       14.8722440884       24.2058341729
 Se        14.9584269208       24.1123795475       14.9795399261
 Se        21.1080397327       17.9767498157       21.0950914070
 Se        24.1680553826        8.9025980241       15.0142676679
 Se        18.0297194449       14.9357431216       27.1777974728
 Se        14.8603297823       11.7784371924       14.8644847807
 Se         8.6104586224       14.7226502697       11.7821195196
 Se        21.0179596426       24.1291004703       21.0155589428
 Se        24.0928591683       11.9166024073       12.0085185331
 Se        21.0856758733       21.1010711073       17.9445536380
 Se        18.2453829458       27.3778909774        8.6595790555
 Se        11.8023027243       11.7536450647       17.9032738018
 Se        24.2011354273       24.2196058305       17.8433748106
 Se        21.1072100859       14.9124226596       18.0388578021
 Se         8.8060378830       17.9396241168       14.9822319720
 Se        11.8703868547       21.0018169558       14.9920702472
 Se        21.0453246333       14.9434890673       11.8799761704
 Se        27.2039375410       21.0154543900       24.0687799745
 Se        27.1828169857       14.9474605497       17.9923700580
 Se        24.2189228974       11.7979503937       18.1429386301
 Se        18.2765465254        8.6394226286       27.3661738058
 Se        21.0589537168       27.1858277422       17.9815560089
 Se        18.0277898986       18.0156903687       24.1283602432
 Se        27.3938297176        8.6501965849       18.2591466220
 Se        27.4103459084       14.7676133269       24.2263240335
 Se        27.3653724186       24.2737207443       14.7501404629
 Se        11.8015540316       18.0991732505       24.2303255855
 Se        27.0976956137       24.1788625507       20.9826818022
 Se        18.0087533235       21.0386290838        8.8170138922
 Se        17.7235379165       27.4117052905       27.3299412292
 Se        14.7426538557       27.3961319404       24.2258197426
 Se        11.8879434385       24.0719712604       12.0230780306
 Se        14.9786226522       27.1912868017       11.9291433915
 Se        14.9892928599       11.8676291532       21.0223707951
 Se        21.2793653400       11.7591831212       27.3817547035
 Se        24.1253983460       15.0213819099        8.8124236398
 Se        20.9777616315       11.8640031504        8.8103755965
 Se        27.3614822593       18.2917771774        8.6512869545
 Se        11.7450531700       14.7393201133        8.6403870191
 Se        14.9098118657       14.8889249615       17.9695786718
 Cl        23.8532905409       17.9346672621        6.0351116672
 Cl        30.0371100666       15.0986319979       20.8734958386
 Cl        20.9307095776        6.0007365323       20.9100777645
 Cl        23.9064674032       18.0728191237       29.9573532098
 Cl        18.0637562721        5.9983286309       12.1048715797
 Cl        30.0940136655       18.0192302347       17.9845734918
 Cl         6.0090043088       23.8543325570       17.9484762348
 Cl        12.0543309107       29.9510772277       17.9229505089
 Cl        15.0935641578        5.9235074458       15.0768589042
 Cl        29.9693768553       17.9800234723       12.1021804405
 Cl        11.6585020535        9.0591098082       26.9236071911
 Cl         6.0390100820       17.9181338521       23.9062190577
 Cl        20.9262524133       30.0742554602       20.9685676715
 Cl        15.0365202621       30.0455858677       15.0204690845
 Cl        17.9514193137       12.1042822673       29.9589691308
 Cl        15.0472591573        5.9277149553       20.9406245430
 Cl        18.0735680175       23.9198869929       29.9620480948
 Cl        18.0063976037       18.0057971644       30.0935373089
 Cl         5.9786320931       15.0374808349       15.1116404835
 Cl        12.0879792248       18.0502140315        6.0444422687
 Cl        23.8780772393       29.9965723862       18.0568204739
 Cl        17.9842013910       17.9898738390        5.9034422313
 Cl        17.8974304460       23.8849656521        6.0386448535
 Cl        30.0146308316       20.9579391484       15.0822834633
 Cl        17.9867704643       30.0935191219       17.9925711988
 Cl        26.9228690150        9.0834684471       11.6334978292
 Cl         5.9805384615       20.8805649161       20.9217551567
 Cl        29.9915902075       12.1234359306       17.9144842367
 Cl        18.0173506855        5.9002795709       17.9986882376
 Cl         5.9268144746       20.9114444428       15.0291574174
 Cl        17.9576028056        6.0406675150       23.9018407344
 Cl        20.9613731610       20.9711633703       30.0490633026
 Cl        15.1065187049       20.9406525618       30.0254481252
 Cl        23.9208662138        6.0485454058       17.9313272944
 Cl        18.0576381660       12.0995611892        6.0377850223
 Cl         5.9042984464       17.9799815420       18.0049925175
 Cl        18.0348161546       29.9894373143       23.8587420803
 Cl         6.0131786208       18.0143485727       12.1376236464
 Cl         6.0408430165       12.0655904485       18.0902290104
 Cl        15.0453399700       30.0185896425       20.8840959813
 Cl        15.0680552654       15.0683633447        5.9898928625
 Cl        17.9282100407       29.9738919584       12.1237118521
 Cl        26.9030759971       26.9702152577       24.3459546929
 Cl        20.9040818068       30.0333812889       15.0953054200
 Cl        30.0703729951       15.0817848386       15.0055353257
 Cl        29.9897575180       18.0708704404       23.8551918874
 Cl        30.0497929136       20.9626069645       20.9629104531
 Cl        29.9504755548       23.9404633509       18.0571784320
 Cl        15.0367804017       15.0610400911       30.0625645438
 Cl        15.0207842092       20.9443221968        5.9494143363
 Cl        12.1411814687       17.9477366141       29.9814340843
 Cl        20.9252101713       15.0903955354       30.0062480010
 Cl         5.9511602495       15.0238711599       20.9648388617
 Cl        12.1310662674        5.9859605524       18.0637262172
 Cl        20.9489066700       15.0360622973        5.9488222282
 Cl        20.9511327860        5.9436026253       15.0189302951
 Cl        20.8803288052       20.9144039542        5.9822266523
 Cl         9.0199186542       26.8740143305       11.6390893719
