1259
 i =      113, E =    -35444.9179930095
Hgd        33.7803541442       21.2997943153       42.7548783096
Hgd        36.8772033500       21.3785190305       15.2265791655
Hgd        33.8665831497       42.7602245383       21.2378447675
Hgd         9.7312342578       30.2810329268       15.6367947332
Hgd        15.5629561150       36.3712522001       15.5418683013
Hgd        21.7121739282       42.1940285698       15.6360919637
Hgd        42.5927652991       28.2728647506       16.1330764109
Hgd         9.3166774321       27.2793318755       18.4818890107
Hgd        12.2462669953       30.6256688973       18.2346046269
Hgd        15.2323825658       33.6900041441       18.2225189112
Hgd        18.2968895439       36.6971141130       18.2184899122
Hgd        21.3167809485       39.6860541437       18.2269716924
Hgd        24.7128275365       42.6688830696       18.4692904263
Hgd        27.0380187292        8.8300044035       14.7350078235
Hgd        42.5127813000       15.3919236404       21.5555332506
Hgd        24.4580580147       33.6862123261       21.3779995939
Hgd         9.2317629155       24.3677678869       21.3797315223
Hgd        12.2341998924       27.5290743560       21.3842940381
Hgd        15.2971327085       30.6101525422       21.3834724285
Hgd        18.3067377165       33.6894549570       21.3705415252
Hgd        21.3898537438       36.6916515756       21.3808363083
Hgd        24.4637236292       39.7675921043       21.3728352413
Hgd        27.6256844187       42.7681839488       21.3528272396
Hgd        36.9258249579       12.3907134287       24.5505244696
Hgd         9.2497569718       33.8393837692       30.7068701208
Hgd        36.0962571431       23.6330519245       43.0081929576
Hgd        33.7841414561       15.1412427619       12.8056103127
Hgd        12.4747839835       15.3297428795       21.2104663701
Hgd        12.4773134321       36.6756634661       30.7879360135
Hgd         9.2317489709       21.3772398702       24.3697487056
Hgd        12.2378104732       24.4539729534       24.4527153682
Hgd        15.2909346095       27.5376690903       24.4603310968
Hgd        18.3144079512       30.6178706119       24.4613540560
Hgd        21.3837183402       33.6854677259       24.4616217914
Hgd        24.4618140290       36.7481040609       24.4585983629
Hgd        27.5437033558       39.7677859748       24.3831359283
Hgd        30.6219642580       42.8273176898       24.2914193603
Hgd        30.2891500440       15.4856134450        9.8293688121
Hgd        15.3923217153       39.5261395014       30.7878305600
Hgd         9.3240757129       18.4723283956       27.2913974927
Hgd        12.2343479625       21.3831893812       27.5264799719
Hgd        15.2506389810       24.4603567806       27.5356977545
Hgd        18.3063437796       27.5290229713       27.5331855038
Hgd        21.3884370121       30.6082043546       27.5195008088
Hgd        24.4633310049       33.6869143815       27.5210953707
Hgd        27.5378195208       36.7610760198       27.5213078954
Hgd        30.6050070979       39.7710898499       27.3872048156
Hgd        33.5334533158       42.9168889090       27.2946226774
Hgd        40.3632749257       21.2175457863       13.1458317595
Hgd        18.2147871053       42.7573245834       30.7020317213
Hgd         9.8296164124       15.4887094507       30.2911945799
Hgd        12.3055307001       18.2965466842       30.6182079332
Hgd        15.3024571681       21.3852649536       30.6148384371
Hgd        18.3134363911       24.4605092339       30.6154383675
Hgd        21.3885288614       27.5231981355       30.6095093022
Hgd        24.4795154318       30.6125332232       30.6046041885
Hgd        27.5443061182       33.6886474353       30.6151681088
Hgd        30.6093453885       36.7637901468       30.5557075976
Hgd        33.6852464292       39.8505175841       30.6043566973
Hgd        36.2706555697       42.5114194816       30.1961136877
Hgd        15.2428004415       18.4587755408       21.3168500786
Hgd        18.3575683662       21.4006156903       21.4189331640
Hgd        12.8194723456       15.0656662744       33.8503333688
Hgd        15.2340085419       18.2859403307       33.7800207962
Hgd        18.3177016943       21.3757421870       33.7026812301
Hgd        21.3829982312       24.4570035246       33.6866189071
Hgd        24.4694618783       27.5354379003       33.6859858297
Hgd        27.5427379689       30.6249047598       33.6842597407
Hgd        30.6241189156       33.7590577876       33.6786137402
Hgd        33.6924941689       36.9273790219       33.6941970427
Hgd        36.6111299122       39.9303596348       33.2885581823
Hgd        15.0601660902       27.3694032993       12.1671956020
Hgd        21.3872315392       24.4710776075       21.3912523171
Hgd        15.5618256743       15.5601208228       36.5089938321
Hgd        18.3040269652       18.3122585291       36.8524922130
Hgd        21.3888371479       21.3894245001       36.7562528925
Hgd        24.4605132442       24.4605131471       36.7586297437
Hgd        27.5350841740       27.5390945405       36.7042514331
Hgd        30.6083050910       30.6213904794       36.6968152784
Hgd        33.6991781907       33.7855914075       36.7106309662
Hgd        36.4327795306       36.5287004760       36.3718129634
Hgd        18.3027302763       30.5391013611       12.1441465102
Hgd        18.8003009977        9.4067876251       33.1893869574
Hgd        33.6986701655       21.3644840980       12.2454713352
Hgd        24.4590549414       27.5361996114       21.3836411594
Hgd        18.7944913210       15.5671369817       39.7550916086
Hgd        21.3915243753       18.2992327512       39.8486493365
Hgd        24.5366741992       21.3945694420       39.7704109554
Hgd        27.5468938824       24.4462380318       39.7607862387
Hgd        30.5488770597       27.5323271300       39.7606443390
Hgd        33.6883712860       30.6240767846       39.6886735506
Hgd        36.8744216598       33.8597242443       39.1111218690
Hgd        21.3878683495       33.6147824186       12.1493229226
Hgd         9.2421618542       21.3035772675       18.1443685328
Hgd         8.9923426933       15.8222309923       23.6363534990
Hgd        12.2224129141       18.3075930569       24.3125216198
Hgd        24.6155392562       36.8671318461       12.1569530412
Hgd        15.2401890400       21.3825168081       24.4588456135
Hgd        27.5170689245       30.6034602733       21.3879412311
Hgd        30.5426312818       33.6150228596       21.3939252784
Hgd        21.6265366655       15.3872479745       42.5257747989
Hgd        24.5549232197       18.3125532585       42.9202488956
Hgd        27.6158233783       21.3054397045       42.7763400927
Hgd        30.5458368950       24.3645982316       42.7690921615
Hgd        33.4510811224       27.2899666839       42.6738874708
Hgd        36.4421575527       30.2878937014       42.1738415760
Hgd        36.3591764212        9.7361893869       21.7127750703
Hgd        12.2306737586       24.3070484565       18.3111968999
Hgd        15.2288624942       27.5427354161       18.2929713803
Hgd        18.3062181781       30.6212186909       18.2877078777
Hgd        37.2762551335        8.9719179803       24.9745296502
Hgd        30.7667187128       39.6810118112       21.2324832781
Hgd        21.3670213565       12.2346504816       33.6992666464
Hgd        21.2263077950       18.1347547693        9.2473518814
Hgd        24.3055336928       21.3218336989        9.2274519437
Hgd        27.4699406514       24.4578535111        9.2325263455
Hgd        30.6029030630       27.6135166437        9.2290312153
Hgd        33.7924377463       30.6304341330        9.2445207093
Hgd        33.7034891552       12.2353835005       21.3719796129
Hgd        18.3070268442       24.4602817225       24.4636486727
Hgd        33.5349548876       36.7001726512       21.3202414059
Hgd        21.3822649790       27.5377504984       24.4590727052
Hgd        24.4598650095       15.2372981948       33.6954411530
Hgd        21.2107841872       15.3289933248       12.4805229537
Hgd        24.3035914443       18.3048359161       12.2295168541
Hgd        27.5275534883       21.3798902586       12.2267684610
Hgd        30.6066496475       24.4637835409       12.2217204698
Hgd        33.6879988160       27.6339130434       12.2363560254
Hgd        36.6064286538       30.7873753890       12.4822094337
Hgd        36.8676560378       15.2232240913       21.3863942308
Hgd        24.4580286967       30.6131941694       24.4576134986
Hgd        27.5231010472       33.6876505515       24.4607730118
Hgd        27.5357901631       18.3094334667       33.6812353551
Hgd        21.2121523319       12.4787908232       15.3844032755
Hgd        24.5359798661       15.2358739786       15.2347337982
Hgd        27.5315352526       18.3064379570       15.2311359722
Hgd        30.6142840650       21.3850116170       15.3011336892
Hgd        33.7020218584       24.4527399888       15.2385860708
Hgd        36.7689523796       27.4529113608       15.2441452404
Hgd        39.4422908699       30.7846949443       15.3961554530
Hgd        30.5536019427       36.6951589812       24.3919298742
Hgd        33.6213496861       39.7621794388       24.3748136641
Hgd        35.8587634147       42.5866058268       23.7143950586
Hgd        33.1949349115       18.7987553146        9.4126583517
Hgd        14.7358723462        8.8363579340       27.0354335258
Hgd        21.3082524729        9.2469203661       18.1464248464
Hgd        24.3606024704       12.2199293584       18.3125927389
Hgd        27.5358248510       15.2337448263       18.3064994147
Hgd        30.6264471763       18.3044667413       18.3063643013
Hgd        33.7139499506       21.3777370883       18.3124135815
Hgd        36.7703594528       24.4503495843       18.2979860289
Hgd        39.7700437496       27.6133657214       18.3872929393
Hgd        42.7594383298       30.7037881553       18.1465212561
Hgd        30.6000542700       21.4566519017       33.6181910938
Hgd        36.3612739257       21.7099059716        9.8002649061
Hgd        37.2768311136       24.9654793928        8.9726125896
Hgd        37.1838148029       27.0320018637       43.1689041165
Hgd        30.6163653508       18.3032032088       12.3060441668
Hgd         8.8306284378       37.1980095673       24.9652649980
Hgd        24.3723503720        9.2326088394       21.3804634968
Hgd        27.5347369218       12.2269271910       21.3886411109
Hgd        30.6150078214       15.3020029933       21.3880775154
Hgd        33.7070663873       18.3107930339       21.3798483878
Hgd        36.7612341375       21.3909782387       21.3906632281
Hgd        39.7728400263       24.5439298023       21.3979239183
Hgd        42.8325752506       27.6208804831       21.3688134190
Hgd        14.8132844064       43.1696627144       24.9668445415
Hgd        21.3801708361       33.6717758188       18.2481545057
Hgd        36.6012305096       39.4381619586       21.1527198947
Hgd        24.4532359813       36.7602783357       18.2969714273
Hgd        27.6894422366       39.7583146874       18.3056625832
Hgd        27.5224997855        9.2306620103       24.4785229526
Hgd        30.6142108211       12.2267406298       24.4706503752
Hgd        33.6989674964       15.2343720325       24.4604835202
Hgd        36.7737550328       18.2926729497       24.4413059380
Hgd        39.7740707123       21.3897187196       24.5384348672
Hgd        42.7712873050       24.5370857246       24.5447117433
Hgd        33.1930715032        9.4080182401       18.8021295461
Hgd        30.6937778996       42.7493734320       18.1326186118
Hgd         8.9733781191       24.9444303890       37.2789409021
Hgd        21.3016407161       33.8545323217       42.7533539520
Hgd        33.6919710305       24.4608035386       33.6924474472
Hgd        36.9297279289       24.5515076807       12.3952915531
Hgd        30.6184566807        9.2315726397       27.6273082378
Hgd        33.6856749660       12.2313825085       27.6862445836
Hgd        36.7726824641       15.2420411862       27.4479616004
Hgd        39.7704278930       18.3756789260       27.6032307971
Hgd        42.8367768157       21.2999834540       27.6168744126
Hgd        33.8553211576        9.2416539054       30.6920875261
Hgd        36.6137016157       12.4871762268       30.7949281054
Hgd        39.4401735957       15.3884807762       30.7811184240
Hgd        42.7580433552       18.0599710779       30.6952918427
Hgd        39.7638199413       15.5055649155       18.8034276876
Hgd        23.6350092815       36.1818993893       42.9345963049
Hgd        36.7658772216       27.5325271152       33.6934658419
Hgd        15.1271339334       12.3028591472       27.3779607926
Hgd        18.3106266457       15.2333979734       27.5304494735
Hgd        21.3838904665       18.3121357071       27.5361365102
Hgd        39.6876421967       30.6170235446       33.6947863542
Hgd        27.0252327160       37.2761741606       43.0306457242
Hgd        39.8402620890       15.0726811392       24.6129219310
Hgd        42.9228814456       18.3143906709       24.5476002730
Hgd        42.5821348003       33.1972801067       33.1883214336
Hgd         8.8349972982       14.7353482494       27.0349690489
Hgd        12.3057293906       15.0705086794       27.3820430402
Hgd        15.2314550490       18.3054007906       27.5321867418
Hgd        18.3124879493       21.3823915610       27.5359667519
Hgd        21.3832590937       24.4598054733       27.5383964821
Hgd        24.4617061609       27.5372264751       27.5365841835
Hgd        27.5387901581       30.6167712823       27.5378806796
Hgd        30.6150973279       33.6873115336       27.5349781995
Hgd        33.6974664310       36.7771008543       27.5363956311
Hgd        36.9286312023       39.8519191876       27.3961984196
Hgd        28.2065698157       16.0688352956       42.5864260026
Hgd        13.1613258784       21.0537850708       40.2866904869
Hgd         9.4104084143       33.1925140130       18.8026123480
Hgd        12.8101234503       36.8630939337       18.1511905735
Hgd        15.1255226653       39.1200888428       18.1493734682
Hgd        18.8006193211       42.5199172820       18.7926212532
Hgd        24.4611706020       21.3832032654       27.5391117250
Hgd        15.0701948635       24.5418298473       39.8577122059
Hgd         9.2271686376       30.4494316074       21.5468643583
Hgd        12.3087796899       33.6898629002       21.3756520535
Hgd        15.2320601302       36.7645229604       21.3782757395
Hgd        18.3054857478       39.6854011322       21.3783254110
Hgd        21.5486887771       42.7665556852       21.4777317105
Hgd         8.8984691253       27.0258656129       14.7291545281
Hgd         9.2330765668       27.4723477372       24.4836093732
Hgd        12.2330657691       30.6043764152       24.4749481427
Hgd        15.2329289829       33.6897410888       24.4687920470
Hgd        18.3096479378       36.7604213996       24.4670634038
Hgd        21.3930339949       39.7692636292       24.4667969454
Hgd        24.4645091711       42.7670765115       24.4604299707
Hgd        13.0714579974       30.7776856688       11.6416630677
Hgd        30.4524424272        9.1656374116       21.5426525336
Hgd        18.3796528425       27.6046703542       39.7694576694
Hgd         9.2326640380       24.4816383980       27.4708230429
Hgd        12.2287905820       27.5435269830       27.5415956248
Hgd        15.2339563909       30.6152773183       27.5382433833
Hgd        18.3077975208       33.6886616634       27.5397037585
Hgd        21.3863797605       36.7580855586       27.5357213514
Hgd        24.4465807515       39.7738728914       27.5328100293
Hgd        27.4519693492       42.7730325776       27.3795781997
Hgd        15.5727870276       33.1919906195       12.2362568276
Hgd        27.5361502106       24.4610695459       27.5362132994
Hgd        39.8473092062       18.3034846981       21.3880470068
Hgd         9.0657422523       28.3016003738       36.1838054873
Hgd        12.4830950328       30.7864552870       36.6132966655
Hgd        15.4026441153       33.6871480284       36.5337717274
Hgd         9.2234896598       21.5447931291       30.4475563641
Hgd        12.2259759124       24.4703672078       30.6033207157
Hgd        15.2351582544       27.5318942849       30.6088195543
Hgd        18.3173434253       30.5483367896       30.5461651625
Hgd        21.3956248010       33.6279492023       30.5448744138
Hgd        24.4522000537       36.6955009628       30.5525568287
Hgd        27.4565783283       39.7694559958       30.5402011971
Hgd        30.2143172236       42.5009866690       30.1968743445
Hgd        18.8045915887       36.4376231844       12.1539974274
Hgd        21.2852005527       30.7041923291       39.6766385162
Hgd        18.0644586851       21.2894617954        9.2407248756
Hgd        21.3029644353       24.3100807517        9.1729208998
Hgd        24.5343373809       27.3851917358        9.2289923585
Hgd        27.6176003156       30.6238419565        9.1667844537
Hgd        30.6845797579       33.8505927341        9.2354208110
Hgd        30.6163347536       27.5439339651       27.5367044374
Hgd        42.5034414822       21.7291203785       21.7226107331
Hgd        27.3860538308       12.3020059916       15.0760462261
Hgd        24.3012941272       33.6925741481       39.7603581391
Hgd        21.2204810944       21.2385158163       12.3197872295
Hgd        24.4379429670       24.3787588764       12.2272436384
Hgd        27.5488538160       27.5324587016       12.2249618881
Hgd        30.6939514195       30.7068114406       12.3128830625
Hgd        33.6869178290       30.6161961895       27.5378540912
Hgd        18.1378062460       30.6946735080       42.7598716362
Hgd         9.4132949929       18.7973140038       33.1928501190
Hgd        12.2501437304       21.3689885060       33.7110432682
Hgd        15.2373384051       24.4561380970       33.6977054742
Hgd        18.3115282884       27.5310157210       33.6843485329
Hgd        21.4512770156       30.6034790687       33.6137510700
Hgd        24.4637267412       33.6920903312       33.6754260369
Hgd        27.5536921747       36.7795853286       33.6918060344
Hgd        30.6152749723       39.8440154390       33.6851892532
Hgd        30.6889263914       18.0636512915       42.7613084958
Hgd        18.3068571082       15.3943141862       15.3999413628
Hgd        21.3142978478       18.4538236954       15.2937107899
Hgd        24.4605913161       21.3798914098       15.2349295222
Hgd        27.5387880321       24.4556400068       15.2471658530
Hgd        30.6164245950       27.5302367318       15.2353034030
Hgd        33.5309972433       30.6831374565       15.2398428654
Hgd        36.5946247554       33.6793570511       15.3968300366
Hgd        36.7591582637       33.6928577317       27.5335901866
Hgd        21.2244430030       38.8557844189       11.7165405353
Hgd        40.2784610890       13.0664739967       21.2255777090
Hgd        21.7113725702        9.7353730430       36.3565104435
Hgd        15.2301092191       15.2301047834       30.6213410314
Hgd        24.5542074286       12.3878739912       36.8682819039
Hgd        27.3950759884       36.9232126429       39.6056717203
Hgd        21.3194651968       15.2368692379       18.4673735118
Hgd        24.4644586300       18.3050311356       18.3146370527
Hgd        27.5367284731       21.3824638391       18.3123041552
Hgd        30.6175802946       24.4594870980       18.3133211584
Hgd        33.6823091921       27.5351583075       18.3097714785
Hgd        36.7045320158       30.6356878541       18.4725087646
Hgd        39.6047218287       36.8705058936       27.3945770138
Hgd        15.2951241091       21.3877357625       36.8544638533
Hgd        18.3020681095       24.4523304948       36.7723937941
Hgd        21.4037504393       27.5481777224       36.6950045225
Hgd        24.4578412252       30.6157855481       36.7587696181
Hgd        27.5416490524       33.6989868654       36.7612074745
Hgd        30.6071154133       36.8619101604       36.7622551149
Hgd        18.1414200632        9.2467530036       21.3042240833
Hgd        21.2966679802       12.3133986098       21.2911783067
Hgd        24.4635058439       15.2347843651       21.3868217895
Hgd        27.5373389304       18.3118674739       21.3853093385
Hgd        30.6181670049       21.3824137154       21.3828802252
Hgd        33.6875933505       24.4579643412       21.3834963606
Hgd        36.6977547293       27.5471042351       21.4061556995
Hgd        39.6825457115       30.6993532271       21.2904672478
Hgd        42.7567696494       33.8494758521       21.3069760461
Hgd        33.2975778062       39.9260455599       36.6148073586
Hgd        24.4572989498       30.6101766765       18.3091683878
Hgd        18.3030541628       18.3020026127       30.6290343335
Hgd        21.3818925737        9.2319645967       24.3726633776
Hgd        24.4552978230       12.2290216107       24.4520285859
Hgd        27.5399821662       15.2516504797       24.4613923451
Hgd        30.6167242420       18.3133657062       24.4630093870
Hgd        33.6878771017       21.3820260556       24.4576816601
Hgd        36.7630020460       24.4602778958       24.4618023811
Hgd        39.7704405337       27.5490308341       24.4591218099
Hgd        42.7663619460       30.6111305863       24.3759926752
Hgd        43.0281418731       37.2749117472       27.0295455723
Hgd        21.3839204004       21.3820276275       30.6160622056
Hgd        15.3859917908       18.7068684320       39.9185120689
Hgd        18.3095329763       21.3751962229       39.8401760548
Hgd        21.4017270167       24.5414259076       39.7660555370
Hgd        24.4492098884       27.5476109395       39.7598875206
Hgd        27.4838306347       30.6168473878       39.7634171641
Hgd        24.5323494207        9.2310093492       27.4676228215
Hgd        27.5476614871       12.2293951261       27.5449123038
Hgd        30.6160814085       15.2345355400       27.5351463561
Hgd        33.6819804819       18.3079437958       27.5350971016
Hgd        36.6952831897       21.3953792311       27.5445471742
Hgd        39.7687890022       24.3903674516       27.5524526173
Hgd        42.7620660444       27.4670176464       27.5302252730
Hgd        30.6154566930       15.2294874938       15.2326369385
Hgd        30.6242710986       33.7110188185       39.7486197015
Hgd        27.5298084415       33.6779728222       18.3100709021
Hgd        24.4606063634       24.4609715364       30.6148148010
Hgd        27.5365424029       27.5443402143       30.6157354611
Hgd        30.6169000351       30.6188421917       30.6171348379
Hgd        33.6788025323       33.7043441361       30.6249776117
Hgd        36.6954026762       36.8579267743       30.6010018057
Hgd        27.6280049887        9.2315563299       30.6170214890
Hgd        30.7061321642       12.3151820545       30.7052921756
Hgd        33.5341296973       15.2451920277       30.6863560783
Hgd        36.6978145325       18.4644995265       30.6328765283
Hgd        39.6792647673       21.2238391556       30.7008646944
Hgd        42.7682560989       24.2950593630       30.6189058593
Hgd         9.0619067206       23.6320369302       15.8177636190
Hgd        38.7781207564       40.2832052677       30.8790699526
Hgd        27.5309569551       36.7609392545       21.3751158591
Hgd        21.7387824465       21.7218976453       42.5046418181
Hgd        24.5448974501       24.5382156827       42.7720026442
Hgd        27.4669696009       27.5302518677       42.7721464182
Hgd        30.6923101797        9.2419417382       33.8547918248
Hgd        36.5918135264       15.4056211783       33.6941492822
Hgd        42.6878151517       21.2286428996       33.8559983528
Hgd        12.3328835096       27.3859330561       15.0740329770
Hgd        30.4458431767       30.4543135254       42.7721074847
Hgd        33.1895233107       33.2005979567       42.5854934053
Hgd        30.6839622865       36.6968443542       18.4608169768
Hgd        27.4532624382       15.2452780329       36.7669053453
Hgd        30.9491660138       40.3502369602       38.8391439110
Hgd         9.2446829473       18.1406707299       21.3041641172
Hgd        36.6040916566       21.2119750240       39.5254096334
Hgd        15.2139303493       30.6066621268       15.0771594814
Hgd        33.7767840346       18.2985633467       15.2861697787
Hgd        18.3156978406       33.6178978034       15.1481418872
Hgd        30.6293195171       18.4646463657       36.7013904221
Hgd        42.9279383776       24.6174549820       18.3243729847
Hgd        27.3811857426       15.0761238628       12.3030145999
Hgd        15.3944823873       30.7862537529       39.4407922805
Hgd        30.4514416942       21.5426762829        9.1685375677
Hgd        33.5214503998       24.7152111683        9.3172306750
Hgd        36.1777735222       28.3583097145        9.0628844678
Hgd        15.1330857241       12.8098638498       33.8473351234
Hgd        43.1730744399       27.0315445316       37.1886746802
Hgd        18.2932884751       15.2370497239       33.7811732014
Hgd        21.3729123560       18.3073531910       33.7149802552
Hgd        24.4578243979       21.3821865907       33.6855459609
Hgd        27.5343008453       24.4684805693       33.6853789274
Hgd        30.6160679255       27.5404755623       33.6869799983
Hgd        33.6883899202       30.6254735670       33.6907182315
Hgd        36.7071056788       33.7818581154       33.7005890879
Hgd        24.9734468660        8.9720808230       37.2757689927
Hgd        30.7893721922       39.4468085754       15.3871168380
Hgd        33.5322998270       21.3112976974       36.7481659128
Hgd        12.4831629772       21.1494651322       15.3889722468
Hgd        15.7213444385       21.7353551346       42.5097093187
Hgd        30.7780887055       15.3918801217       39.4391958304
Hgd        15.2353295619       15.2346037950       24.5377400000
Hgd        21.3759956742       15.2208227697       36.8761490981
Hgd        36.1811255890        9.0633666572       28.3594592259
Hgd        24.4399685935       18.2954952696       36.7662497976
Hgd        23.6319040272       15.8911135914        8.9915560320
Hgd        18.3097130305       18.3091566619       24.4583020830
Hgd        15.2348730207       24.5418095537       15.2316612617
Hgd        27.5476218384       21.4051552024       36.6970128917
Hgd        15.4879765315        9.8305666682       30.2928255874
Hgd        18.3051073330       12.2988521408       30.6169119215
Hgd        30.6106276541       24.4556026492       36.7650538829
Hgd        42.5916149738       16.0685139051       28.2086757713
Hgd        18.4624715169       24.6379891842       42.9195101780
Hgd        21.3807060228       27.6346019376       42.8199360876
Hgd        33.6841591174       27.5310229139       36.7673550648
Hgd        36.7701900609       30.6166641652       36.7669016852
Hgd        39.1824426885       33.8511725330       36.8611736138
Hgd        21.3881583676       21.3881685509       24.4745403927
Hgd        18.3101293418       36.5983935628       36.5854923364
Hgd        21.2182469166       39.4988355563       36.6069867936
Hgd        23.8054912600       42.5947184838       35.8646315043
Hgd        36.7583752955       24.5355756192       36.7668324125
Hgd        18.2944878522       27.5385510884       15.2286039087
Hgd        21.3943130519       30.5417152101       15.2349600565
Hgd        24.4619331658       24.4618638984       24.4625475586
Hgd        39.6947231560       27.3805414338       36.9248855283
Hgd        16.0572025967       23.7294111916        9.4067439475
Hgd        18.3130485735       27.3738580577        9.0747886656
Hgd        21.7236167914       30.1951798647        9.4946359504
Hgd        24.5485300635       33.5998240411        9.0715105083
Hgd        28.2089822638       35.8527460560        9.3992968831
Hgd        21.3864725682       15.3011473034       30.6149089133
Hgd        24.4613559297       18.3131778255       30.6166290414
Hgd        27.5276262206       21.3919159254       30.6116098661
Hgd        30.6081206469       24.5260575022       30.6075461868
Hgd        42.1743544015       30.2838051316       36.4476344348
Hgd        15.3859523625       21.2093943410       12.5617786807
Hgd        18.3301033775       24.3798348524       12.2333241119
Hgd        21.3914326766       27.3816995665       12.2264040387
Hgd        24.5398571783       30.5338267264       12.2273646764
Hgd        27.5552074746       33.5946969598       12.2275209176
Hgd        30.7829577963       36.6015313766       12.4979581300
Hgd        27.5370813586       27.5366435285       24.4625630826
Hgd        33.6909987161       27.5381346341       30.6132302476
Hgd        30.6065111970       30.6105312295       24.4784410580
Hgd        33.5221942112        9.3176784153       24.7217034147
Hgd        12.3159717107       21.2921275730       21.2935759088
Hgd        15.3913806094       30.3677140384        9.4689918448
Hgd        15.4030366818       18.2951674603       15.4089700095
Hgd        18.4616843235       21.3099049233       15.3018529267
Hgd        21.3898573464       24.3905808197       15.3017199484
Hgd        24.4568333757       27.4728336634       15.2390515938
Hgd        27.5366920598       30.5406117314       15.2980214789
Hgd        30.6251152180       33.5242230492       15.2340330197
Hgd        33.6885450321       36.5310037351       15.3984568480
Hgd        33.6833472619       33.6907684977       24.4641455062
Hgd        21.6105837655       36.5189108628        9.4867852518
Hgd        15.3992598837       15.3956977576       18.3077043354
Hgd        18.3867281963       18.3798541066       18.3959180989
Hgd        21.4550079557       21.3890027069       18.3863323578