      84
 i =      102, E =     -3015.5187574174
 Ga        16.4913529393       13.9486572194       10.9492653672
 Ga        13.2029042144       16.2204891616       10.4234899315
 Ga        16.0526732866       16.6528042039       13.5037982675
 Ga        16.5792671100       18.8335921525        9.7560720527
 Ga        13.2692615962       16.4253465080       16.6490005609
 Ga        16.9564576443        7.4913110323       16.4226363458
 Ga        13.2793893040       11.0269381439       10.6406524064
 Ga        19.3432936575       13.6441703838       13.9490734453
 Ga        16.5016723992       10.5166614915       13.4911671918
 Ga         7.7194103466       10.4972085858       10.4346349160
 Ga        14.1101874183       19.2741261915       13.5800644858
 Ga        16.3496874386       16.5750427805        7.5616589575
 Ga        13.4939621748       13.4377168451       19.4223608200
 Ga        10.7239325779       10.1916047463       13.6501134695
 Ga        10.2785998560       13.3462634142       11.1030210949
 Ga        13.8753150901       10.5074087078       16.5776826140
 Ga        10.3450278155       10.1955272513        7.8701574454
 Ga        10.3563681221       13.1974155780       16.6485539123
 Ga        19.2057515917       15.7358348412       10.1284159290
 Ga         7.7207673630       13.7948471565       13.2006668932
 Ga        13.7875379992       12.8953660663        7.9521418258
 Ga        13.4886414319       13.5046335336       13.8659079934
 Ga        16.7234493917       13.5626930126       16.5768048591
 Ga        15.8162739343        9.8262076500       19.3445160637
 Ga        10.5699403386       16.4268009929       13.8921894104
 Ga         8.0954149218       17.1758232075       16.0450753577
 Ga        10.2748562408       16.5766620369       19.2753007267
 Ga        13.5802159498        7.6552155356       13.4215013508
 Ga        19.0630068992        9.8976608052       16.7421073088
 Ga        11.3335889231       19.2106398519       17.1054099969
 Ga        10.5903671249        7.7922768564        9.9715740342
 Sb        11.9316859199       14.9310430203       12.2799422630
 Sb         8.8993300124       11.6071421724       12.4417364495
 Sb        14.9975546214       12.1951820549       12.2050140768
 Sb        15.2410075080       12.0894835928       18.1446925733
 Sb        14.9654109631       14.9017111966        9.0757321167
 Sb        15.0174581174       15.0671491311       15.3006736147
 Sb        18.4846312376       17.5906858360        8.5386493202
 Sb         8.9866369947       14.8683370747       15.2024165294
 Sb        18.0661307898       15.3769874210       12.4954194493
 Sb        14.8474740324       17.8781277046       11.5733860861
 Sb        11.7892667350       14.8313721414       18.1018535236
 Sb         9.0612981414       18.4806000773       18.0928287752
 Sb        12.1240360179        8.9957008099       11.7900722455
 Sb        11.5264823097       12.2231726397        9.1182864354
 Sb         8.4660430419        8.7015453004        8.8486577514
 Sb        12.2273103530       18.0668787662       14.9826392098
 Sb        18.0410560532       11.8128341571       15.1770688745
 Sb        12.0343867420       11.7859144295       15.2388998794
 Sb        15.1878800447        8.8869761538       15.0121225391
 Sb        17.8620365195        8.5052082558       18.5820653718
 Cl        10.2508315445       10.7069189610        5.8148856308
 Cl        13.9125443644       12.7105892555        5.8641576496
 Cl        16.7515069288       20.9132541604       10.1554044672
 Cl         5.9938154701       17.4424672641       15.9608527217
 Cl        21.2785474741       15.3010364807       10.2487975971
 Cl        18.3319969047       13.4643255055        9.6329332471
 Cl        13.3836611465       18.0527315548       18.2730947892
 Cl         8.4008967306       14.7735820460       11.1248320140
 Cl        10.1918925717       16.4084089934       21.3722465527
 Cl        16.1494561082       18.6388430256       14.7247238036
 Cl         9.1287368756       12.0074437861       17.9282138627
 Cl        15.1177319844       18.5616999167        7.9308809782
 Cl         5.8846847120       11.4620044219       10.0282013879
 Cl        10.8395858749        5.6981166080       10.1898689306
 Cl        13.5158552574        5.5680084093       13.4478735439
 Cl        21.1315080145       10.3014660822       16.9978918909
 Cl        11.9259292264        8.4694806900        8.1179337488
 Cl        16.1245884918       16.0941936396        5.5139539849
 Cl        13.6023308356        9.0794326238       18.3585494536
 Cl        11.6624506827       17.1328180022        9.2487767965
 Cl         5.6248062463       13.9409353344       13.2466828472
 Cl        13.9601346621       21.3631636110       13.7269260794
 Cl         8.7792660426       17.9446236383       13.8034313586
 Cl        14.7092477377       10.8566573776        8.7892464218
 Cl         9.8947427208        8.6071308105       14.8441183651
 Cl        17.6418360007        9.5195791464       11.9740303652
 Cl        18.8934472003        8.1088843801       15.2163567883
 Cl        21.3984310231       13.9477256440       14.1828283988
 Cl        13.5150844395       13.5410332351       21.5105483042
 Cl        11.8671446984       21.2224718936       17.4673440200
 Cl        16.6527922814        5.4221202030       16.0998025406
 Cl        15.2993472271        9.7977751187       21.3969264826
 Cl        18.1034857672       14.8421684627       17.6073044593
