     381
 i =      220, E =     -9602.6683229009
 Hg        17.5964938942       23.9729519111       16.8744995847
 Hg        20.9989417532       27.0315372088       16.8790409365
 Hg        24.1835091656       30.0847634208       16.7615846333
 Hg        18.2017957774       29.3398588731        7.1915615851
 Hg         8.4516425867       14.3840031827       16.3975645398
 Hg        11.2704007559       17.4137232772       16.7363479037
 Hg        14.3690922431       20.7014623926       16.8581998271
 Hg        20.9703261855       23.9201589226       20.2584691810
 Hg        24.3198754780       27.2902153026       20.1834606276
 Hg        27.5529642614       30.3041594064       19.7955049157
 Hg        14.0853217381       10.6302420619       13.2668657318
 Hg         7.8689610500        8.7164288450       19.6384587105
 Hg        11.0629691403       14.0358344315       20.0875925177
 Hg        14.3649812850       17.3050561718       20.2407828630
 Hg        17.6372809714       20.6634967727       20.2098313547
 Hg        24.2276480177       24.0364423745       23.5960689733
 Hg        29.6893376185       26.8961483749       23.1801190451
 Hg        17.4672258515       14.0823389368       13.4890115283
 Hg        11.1348585420       17.0127022052       10.3752156784
 Hg        10.8681977157       12.0487879552       23.4035062229
 Hg        14.2405506710       14.0206601191       23.5131908893
 Hg        17.5839662769       17.3082779015       23.4153400747
 Hg        20.9827763687       20.6978679088       23.4603549050
 Hg        26.2788146231       23.8855253993       26.9152220062
 Hg        20.9050410749       11.0019095385       20.1829521929
 Hg        14.6645523920        8.6425878309       26.4380569669
 Hg        17.6697585904       13.9522956348       26.7501221785
 Hg        20.9620427830       17.2641287144       26.4605171433
 Hg        24.3061242767       20.5447452125       26.7329049889
 Hg        24.1875791289       14.0456301066       20.2732567272
 Hg        30.4766128474       17.0356587494       23.4936077191
 Hg        24.2204133524       17.3153131589       16.8466212120
 Hg        24.0802235322        6.8914029076       16.0702707318
 Hg        24.2298628647       23.9102212801       16.7888427362
 Hg        21.1078808056       14.0651954250       29.5107911715
 Hg        23.9749104237       16.9056321502       29.2845120075
 Hg        29.5170341521       20.0226345191       30.0016253298
 Hg        20.9933846177       17.3022428647       13.6628244730
 Hg        20.7952410386       17.5758157568        7.1083754699
 Hg        11.6544456072        7.7541084651       19.3858768324
 Hg        14.5619845871       17.1139787904        7.7657793642
 Hg        23.5825600492       11.2167741897       10.4534747375
 Hg        17.7578746609       20.5594833199        7.1130224386
 Hg        31.1825385803       29.8386371720       20.1327572897
 Hg        24.6237736054       13.6022265568       27.0685111853
 Hg        30.4761738532       20.8882031650       13.6389387373
 Hg        14.8064806893        7.7192706983       22.5719461813
 Hg        14.2466303437       14.0763507537       16.7148433887
 Hg        27.4728667243       21.1014809721       10.4623822239
 Hg        27.2969050955       17.2852850187       20.2484805690
 Hg        17.5783924560       10.9587604434       16.7063479356
 Hg        17.7248747422        7.0510706177       29.2881382685
 Hg        21.4002371792       27.2370154598       10.5190328243
 Hg        20.9448475165       20.6676530817       16.8895651251
 Hg        17.5576183941        7.5701460421       19.7430756934
 Hg        21.4399049867       11.0506002186       26.3624670339
 Hg        11.4862730247       23.4421336329       10.5301784792
 Hg        14.4099333762       26.0362555436       10.1717773443
 Hg        18.3785503768       30.3051776381       10.9886459321
 Hg         8.5564110930       20.3002225601       10.4641330137
 Hg        14.2475208363       24.0541925547       13.5526118881
 Hg        17.6787945047       27.3141714686       13.5521405269
 Hg        21.2823289943       30.2573579351       13.7192432483
 Hg        17.1750656744       10.9175360371       10.3059578950
 Hg         8.0911583986       17.2624572515       13.4013732099
 Hg        10.9627931951       20.8220502090       13.5267964036
 Hg        17.6437623223       27.0387216357       20.2880544821
 Hg        20.5771776095       30.3125298776       20.0996965768
 Hg         7.8854988669       17.4339327209       20.1163725854
 Hg        11.3456472591       20.7145123068       20.2152347594
 Hg        14.3617685860       23.9257556994       20.3402096210
 Hg        21.0523940273       27.3152789361       23.5860623051
 Hg        24.1731212513       31.1056897977       20.9901952482
 Hg         8.3775965064       14.5816725452       23.0793833203
 Hg        11.0734595953       17.4539816612       23.6574720047
 Hg        14.3061116076       20.8166267443       23.5109099907
 Hg        17.4960630483       23.9769907403       23.5386723590
 Hg        23.6460609141       26.7874157817       26.5925072997
 Hg        24.2133960574       20.6771285860       20.2604910007
 Hg        23.6769423692       14.5509823086        7.5981690795
 Hg        24.2284007824       13.9524168569       13.5011880909
 Hg        20.9340707718       14.0826804214       16.8220343156
 Hg        11.2701775346       14.6316288173       26.3399303188
 Hg        14.3173461492       17.1943384200       26.8766875697
 Hg        17.4927647087       20.5908964319       26.5127419692
 Hg        20.8360485165       24.0710321858       26.7749047441
 Hg        29.6457513672       11.0520574834       13.9384402382
 Hg        16.9436786945       14.1162931187       30.5963014311
 Hg        17.8728600522       17.7309397616       29.8352983546
 Hg        20.8294357620       20.5879349737       29.9287246361
 Hg        23.7629678248       23.4988254643       29.4350330856
 Hg        24.1280599897        7.9251934729       20.2801940692
 Hg        24.2362172578       10.7119435268       16.8774342555
 Hg        27.2455199274       26.9085967792       16.4588209771
 Hg        14.2218749704       10.7588910797       20.1263511760
 Hg        10.6954658782       13.7109273226       13.1302960606
 Hg        26.2035591535       14.1020831801       10.1213814922
 Hg        30.5162853139       18.0357342608       10.8984349333
 Hg        24.2968488547       17.4312645638       10.3776328953
 Hg        20.0316339970        9.3368434287        6.6334725894
 Hg        27.4662833577        7.6907659231       17.2792074936
 Hg        27.4391266134       16.8811186529       26.6247235574
 Hg        27.1776764662       11.0704619557       20.6519432344
 Hg        24.0575518625       21.0628436720        7.8593304147
 Hg        27.2910238911       20.6863553682       16.8774740869
 Hg        27.5379456848       14.0353461728       16.8370718194
 Hg        20.9852991132       20.7469984388       10.6769722034
 Hg        30.0870751750       23.6528566757       16.5960471174
 Hg        21.0761887819       14.0664367927       23.3662632769
 Hg        17.5673058964       14.0679505136       20.1539180273
 Hg        30.7190692984       17.6566572024       16.9379227896
 Hg        11.3671475621       29.4172748419       14.0091122597
 Hg        15.2171833219       30.3310824380       14.1663372211
 Hg         7.1780963462       23.8451050354       16.1836712817
 Hg        14.3339866111       27.3003734488       16.9037977079
 Hg        17.9519455489       30.4187863532       17.0022282774
 Hg        20.9457017823       17.3562887821       20.1663778066
 Hg        24.2516676466       20.8369815691       13.6233132796
 Hg         7.9725968143       20.2694585799       17.1310712731
 Hg        11.0140986459       24.0514326084       16.9278011169
 Hg        17.4818847689       30.1748641112       23.7291988359
 Hg         8.4754744949       21.0568786801       23.2007393968
 Hg        10.6773229198       24.3732340061       23.9142560871
 Hg        14.0660082557       27.4681788790       23.8243555036
 Hg        20.5038057609       29.7124654496       26.6217757773
 Hg        30.5752098342       14.9072152996       14.0988266478
 Hg        17.5877699223       10.7181583874       23.4245806477
 Hg        20.8416001252       13.9414413846       10.2962744659
 Hg        17.5736544429       20.7582736094       13.6860949374
 Hg        21.3002667119       23.8225483131        7.8877702077
 Hg        29.5263030667       17.8942899532        7.1089187973
 Hg         7.4455940925       18.1969478464       28.2648911916
 Hg        11.1492491172       21.0527260435       26.6365404575
 Hg        13.9407406907       24.3057189979       27.0802631246
 Hg        17.2084308285       27.0920104659       26.7476814900
 Hg        13.7922525656       13.6346242490        9.8177016911
 Hg        17.5998599764       17.3459877807       16.8678328206
 Hg        11.2543207571       17.7604288559       29.2742458089
 Hg        14.1616333286       20.8048830717       29.7366993342
 Hg        17.1808159853       23.5902289471       29.3780027871
 Hg        17.7165814524       24.0630650746       10.3901303338
 Hg        24.7659581571       24.4955106509        9.9743804223
 Hg        21.1282520657       23.9830420534       13.6303219539
 Hg        14.3462805973        7.8247424459       16.4445660719
 Hg        27.5612522985       23.9449525497       20.2758225168
 Hg        24.6211588045       10.3628933569       23.7994950379
 Hg        27.7461605984       13.6883991292       23.7797522116
 Hg        17.3372208702        7.7728004230       13.3454089051
 Hg        24.2304688766       17.1692273825       23.4962488345
 Hg        24.6043774886       27.5702651619       13.3786362069
 Hg        27.5443987038       17.3357136182       13.5118524620
 Hg        17.2961479180       14.3782159173        7.7598308679
 Hg        21.2360157172        8.2086944888       23.1076573388
 Hg        20.5020414180        7.7082200307       16.9771283225
 Hg         8.4646322544       30.8882229898       17.0272824214
 Hg        27.5564202879       20.6397558238       23.5476195603
 Hg        30.6244145933       23.0381429814       22.9630555054
 Hg        20.9763364037       10.6830194706       13.4817594120
 Hg        30.0516658622       14.2998463231       20.5116760403
 Hg        14.7064493055       29.8448085167       20.6572956008
 Hg         9.6501421203       19.8452724060        6.6609862595
 Hg         8.2767237307       23.9211559487       20.3718481394
 Hg        11.4001881791       26.9774397768       20.7349477447
 Hg        14.3151973372       17.2118838404       13.5397516188
 Hg        14.7966407993       23.5040737230        7.6486829048
 Hg        27.8755726266       24.3298829334       13.2469484246
 Hg        30.4948631907       19.9365686504       26.1963891312
 Hg        14.1759678782       20.6830489398       10.3788300418
 Hg        30.7178705425       20.2730096305       20.1265879314
 Hg        17.5975488843       17.4068791174       10.6262221939
 Hg        20.4171876740        8.2883362956       10.4366982135
 Hg        11.1103950272       10.8524632074       16.4027177571
 Hg         7.9918338506       27.2462976307       17.3339281278
 Hg        18.0487338568       10.7038998590       29.7553798150
 Hg        20.0406554066       28.6448826232       30.4164838401
 Hg        31.1124380215        8.1545401905       17.0111197212
 Te        19.2031945358       25.6910456341       25.1638771684
 Te        22.4292204449        9.1844754229       18.4752058092
 Te        22.7737235681       25.7138820419       15.1689214397
 Te        22.7029660034        8.8353664996       25.2715554552
 Te         9.5506386395       19.0081656056       21.7603655132
 Te        29.0470670988       19.0684786881       15.2613506420
 Te        29.3407570139       15.7686315427       11.8715634955
 Te        19.2792697055       15.6620767786       21.8067388234
 Te        15.9471743045       22.3911562419       11.9399416963
 Te        16.0744628874       19.1121060112        8.8235853757
 Te        26.1710091494       29.1076243117       15.1917392734
 Te        12.6671200239       15.5891625910       28.5421648936
 Te         9.1999632682       25.8811731410       22.0009605239
 Te        12.6148621069       15.6985599733       21.8667646613
 Te        26.1989784351       22.5551888003        8.4347542825
 Te        22.3047503400       25.6325488027       28.6955663720
 Te        25.9086807848       22.3423029569       21.9432881906
 Te        15.8520056434       25.6989930694       21.9741573271
 Te        19.2360606095       28.7878206400       21.9246828972
 Te        15.7711224554       12.2488586234        8.2795102343
 Te         9.4964908107       22.2172845034       18.5443811884
 Te         7.3226839327       29.3638062024       18.7647227079
 Te        22.7725054918       22.4979039615       11.8713563827
 Te        22.8159801233       25.9467084183        8.4639974053
 Te        19.4098705588       28.8109679066       15.2935750524
 Te        19.2348937772       15.6729480457       15.1812795277
 Te        15.8275503160       15.6161419112       11.7788508612
 Te        19.2741231163       19.0067868761       18.5254534598
 Te        12.5483621411       15.5940061226       15.0525756564
 Te        22.9044804145       29.1781526618       11.8227387167
 Te        22.5990000987        9.0194679072       11.8352697378
 Te        15.8413460469       22.4467829712       25.2454035699
 Te        22.5955994158       12.3495052866       15.1876327959
 Te         9.4003565045       19.6826962351       29.0945112713
 Te         9.5051693244       15.8287293343       18.4771982523
 Te        15.9678501040       22.3471430627       18.5572231925
 Te        19.3031248412       25.5226222126       18.5698404180
 Te        25.9540374749       15.5105013516       21.9423524644
 Te        26.1276758549       15.4450693737       28.6397153373
 Te        15.9312897844        9.2599704953       18.3438412140
 Te        19.2956988422       19.0551168613       12.1276918297
 Te        25.9272710798       29.2629193873       21.6976745221
 Te        15.6587317249        8.9858670001       11.6011292755
 Te        22.4935167258       18.9605292776       28.2821624071
 Te        12.5832217784       22.4653018030       21.9785933421
 Te        30.0331108694       12.8059420905       15.8198304338
 Te        29.6791498338       30.9980163321       18.3880338883
 Te        25.9244247556       21.9976957640       28.7291032010
 Te        25.9011395487       15.6395979230       15.1481169875
 Te        19.2593611255       22.3422808352       21.8931921911
 Te         8.9931253408       25.6055513339       15.4259946701
 Te        25.8931026492       25.8141937122       25.1730648826
 Te        15.9356332576       19.0374756439       21.8681033686
 Te        12.5813759811       18.9752611418       11.9429331080
 Te        19.2321326119       12.4819205914       18.4615248695
 Te        18.5164776217        8.4934247867        8.5597129374
 Te        12.6872072290       25.6767965813       18.5625982409
 Te        25.9594120398       18.8796140430       25.1541981317
 Te        15.9308351872       18.9972499171       15.1951620082
 Te        19.2502369822       22.1776044300       28.2714128602
 Te        16.1516407522       28.8474242701       18.5629829171
 Te        22.6033403703       22.3209966597       25.2057201150
 Te        22.6768589476       28.9929022428       25.2108291705
 Te        19.1669897401       12.3410120506       11.8836061790
 Te        19.3236982487       22.3853819466       15.2362481289
 Te        12.5879663212        8.9354962060       21.6740803590
 Te        12.6318863736       22.0993925003        8.4152203189
 Te        19.2819606663       12.3324162696       25.0621143258
 Te        25.7866099988       18.9849882375       18.5601677225
 Te        12.5152087934       29.1386178157       22.0402794318
 Te        29.1162412826       22.1217491684       18.6258332809
 Te        19.4087926426       25.7049118946       11.9514986895
 Te         9.5701935854        8.2711525702       17.7378728175
 Te        16.2968577732       25.6669894472        8.3608950412
 Te         8.7162768581       18.3932373032        8.5947797945
 Te         9.1084221569       12.2028993962       14.9898237573
 Te        29.3662199701       12.1429483539       21.9508529885
 Te        26.0137979872       22.4604853414       15.1439561243
 Te         9.1571165412       15.9978857520       25.2283475935
 Te        29.4596396381       22.5660503483       11.7570132958
 Te        22.4970012510       19.0580561466        8.8186150474
 Te        19.3026975341       15.8875188775        8.7990243952
 Te        16.1671940475       12.3796604648       28.7657399021
 Te         9.1163582491       22.4958365023       25.3683069061
 Te        15.9687714541       19.0213286940       28.3501288597
 Te        15.9701674527       15.6180966879       25.1423522788
 Te         9.0412280848       12.4370869059       21.5377614991
 Te        13.1192359742       29.8035495005       15.8923868919
 Te        19.1833970208        9.1502293755       21.6036910828
 Te        16.5315640720        8.2378099403       24.6725249486
 Te         9.2871200836       22.4534597668       11.9035206309
 Te        12.3941622350       25.9209988649       25.4314896425
 Te        26.1752804456       12.0308155454       25.3785017177
 Te        12.7931487093       19.0025789924       18.5178505001
 Te        12.3614974663       12.1094736276       11.5975179790
 Te        25.9607190669       19.1136549868       11.9227744508
 Te        15.7669572448       25.7704772989       28.7331378720
 Te        29.0692678539       18.8753521332       21.8454771213
 Te        12.6466365549       12.3860059142       25.3111946498
 Te        26.2567322628       26.0029482735       11.7388203799
 Te        30.0173801256       18.2112375757       28.2210594938
 Te        22.6376090282       19.0410188926       15.2148723078
 Te        22.6970771024       12.2642913354       21.9042837028
 Te        19.1635359919        9.1911559549       15.1201657214
 Te        12.4517882951        8.9567720691       14.8726578833
 Te        12.4027161038       22.5441212989       28.6343409749
 Te        26.0950909129        8.8607526245       21.9094238097
 Te        22.7049589556       15.4997353401       25.1973953200
 Te        15.9521238586       25.6908441620       15.1974615126
 Te        22.6183982574       18.9587981033       21.8817398808
 Te        25.8460264917        8.7209191316       15.3702785211
 Te        19.2789952797       15.7718727229       28.3008479292
 Te        15.8176565152       12.3804336413       15.0520476162
 Te         9.1544465151       15.5094421866       11.6260988513
 Te        22.6485701034       25.6503077966       21.8716784218
 Te        25.8427003554       12.1740597467       11.8686209900
 Te        22.6206264185       22.3219134295       18.5563929635
 Te        20.0622901300       29.8134703274        8.9282383128
 Te        12.5960405452       12.3550994865       18.4117452778
 Te        25.9502989674       25.5822210941       18.5931952079
 Te        22.5986345179       15.6683065195       18.5187151770
 Te         9.4669992332       19.0180475337       15.2049489135
 Te        12.6471123135       22.4025034489       15.2367867792
 Te        22.5935529124       15.6756749927       11.8942272159
 Te        29.3614153520       22.2045841641       25.1910396355
 Te        29.1004346015       15.8379233650       18.4799134578
 Te        25.9045030818       12.3793581340       18.4890626159
 Te        19.4652177600        8.5776025507       30.4257271244
 Te        22.5013512329       28.8284437399       18.6006246831
 Te        19.2693870673       18.9836605298       25.0062990041
 Te        29.5683409904        7.0018477084       18.7242920764
 Te        29.3861396405       15.3632930631       25.3325581603
 Te        29.4375767586       25.8226611635       15.1614932746
 Te        12.7237908605       19.0734033271       25.2472582555
 Te        30.0641661541       25.1641139033       21.2737910663
 Te        19.2957493709       22.2492906200        8.8201756311
 Te        18.5749201921       29.5274841874       28.4707301258
 Te        15.7125790924       29.0559456644       25.4480302621
 Te        12.4853446140       25.6880724842       11.9290189498
 Te        16.1002722616       29.1212297494       11.9328179298
 Te        15.8903627724       12.3646754564       21.8335558324
 Te        22.7300623074       12.1028587277       28.5661930530
 Te        25.8651582213       16.0088686291        8.3252314990
 Te        22.2572620500       12.3883984203        8.3430516607
 Te        30.0365941557       19.7370741359        8.8539611112
 Te        12.4139969478       15.6200200899        8.3059494040
 Te        15.9118661898       15.6713913662       18.4866286477
 Cl        29.1341956682       16.2693678220        5.5107641543
 Cl        31.8627787586       15.6801742799       21.7527903522
 Cl        22.5519693133        6.4358109003       21.7366034338
 Cl        29.1342284909       21.6179936813       31.6307265907
 Cl        19.2483868651        6.5392409594       12.1120322987
 Cl        32.2116317917       18.9534162894       18.5432261798
 Cl         6.5734249999       25.1095323113       18.5198673013
 Cl         9.5768944890       32.1439572225       15.4186953927
 Cl        16.1005966149        6.3989034037       15.1693357130
 Cl        32.1390622376       19.1733095401       12.5088082813
 Cl        13.0340737146        9.0302890898       28.0274071833
 Cl         5.6218945870       16.9346591529       27.6158607723
 Cl        22.1461498073       32.3412270767       21.1220353234
 Cl        16.4862172406       32.0322387050       15.5765290012
 Cl        19.2667069728       12.8376219537       31.1924229756
 Cl        16.2212878626        6.0013461617       21.3137102085
 Cl        21.2872962169       27.9445897802       32.2317438790
 Cl        19.4495152274       19.0082292347       31.3812348845
 Cl         6.7358448743       15.9079322685       15.2138193555
 Cl        10.4025784854       21.0673355310        4.8496541270
 Cl        25.4052021438       31.7436972635       18.6609648985
 Cl        19.3185029949       19.1153081509        5.6878662060
 Cl        16.5533026430       28.9822322385        5.6086405943
 Cl        31.8805399601       22.2399946592       15.3655179083
 Cl        19.2918650515       31.8988459495       18.5805352105
 Cl        29.2642221442        9.4918866722       12.2789417424
 Cl         6.7397775587       22.3092069148       21.7574211568
 Cl        32.3807535831        9.2704539738       15.4156199910
 Cl        19.2725242686        6.1272493191       18.5569074957
 Cl         5.9167307343       21.8321121501       16.1344381146
 Cl        16.1098037313        5.7955778437       28.1891669739
 Cl        22.4657783470       22.0864390358       31.2236359491
 Cl        16.0011630982       22.0802486279       31.1103089616
 Cl        25.3143950385        6.2511330440       18.4244167658
 Cl        21.3302799651       10.0059564418        4.8424376393
 Cl         6.4273660201       18.9568185634       18.6741275225
 Cl        19.3335968256       31.4804790381       24.9534507537
 Cl         6.8097304305       19.1274581015       12.1553809108
 Cl         6.3285501284        9.0485028917       21.3318280804
 Cl        16.1478891266       31.5637235685       21.9272349962
 Cl        16.0854141694       15.9189826542        6.0220947087
 Cl        19.5395413143       31.9085737431       12.5907363365
 Cl        29.3131400965       28.4238203935       24.8707244901
 Cl        22.6153734661       31.6669352811       15.4277178279
 Cl        32.2930837297       16.1575558120       15.5083392630
 Cl        32.1268312390       18.7581554979       24.6063799934
 Cl        32.3149156795       21.7639157474       21.5610537633
 Cl        32.4022583535       28.7121457790       21.7599528682
 Cl        16.8906024651       16.1288536266       31.8636779873
 Cl        16.2106774814       22.1995341869        5.8616211870
 Cl        12.9574010302       18.9227853471       31.0208795681
 Cl        22.5400145766       15.6482001059       31.0327044512
 Cl         6.5745677548       15.9011456766       21.7091825815
 Cl        13.2600382737        6.1652676249       18.2191151534
 Cl        22.3856950228       15.9930413457        5.8313056007
 Cl        22.0603615732        5.6480835685       15.9744127598
 Cl        22.5723095685       22.3439092173        6.1351303141
 Cl         9.8152147051       29.0319125035       12.3418774151
