     282
 i =       66, E =    -10308.2610560479
 Ga        25.7569032857       23.1599783339       14.4291097739
 Cl        19.5543890395       24.4227051942        7.7018264038
 Ga        23.1683344930       14.9134488180       14.8180917316
 As        18.9529593033       24.3532686585       13.3572748407
 Cl        21.5333640157       27.0724961459       13.3593709157
 As        19.0336497563       13.2532844200       18.8604761454
 As        21.8328188214       15.9146854537       24.5232732990
 As        18.9979334400       13.1598324054       24.4528540937
 Cl        27.5231683658       10.8804741478       19.3244928975
 Ga        17.5874405819       25.8450723401       20.3366730952
 Ga        17.6783047850        9.2304017322       14.5775476855
 Cl        27.5520596124       13.9370263739       16.4412985503
 Cl        27.1723733705       13.2946415827       21.7407505466
 Cl        17.6608576371       27.4263655119       13.3598874805
 As        16.0676126087       24.5334778555       16.1532748216
 Cl        27.5266143514       17.5132911470       13.3618012526
 Cl        27.1240544862       16.1599165314       19.0169537304
 Cl        27.4175940546       15.6435533923       24.2354081018
 Cl        18.5457351400       27.3595932360       21.4332485471
 Cl        27.2755394834       19.4655237119       10.4725425884
 Cl        26.9547511639       18.8982512160       16.2001615808
 Cl        27.4617251892       18.5949111315       21.4098777715
 As        18.9240669385       24.4478286369       18.9112439094
 Cl        18.2619942230       21.6189507749       27.2030507078
 Cl        27.0889832285       21.4445804458       13.2883819860
 Cl        27.2915209955       21.5645171722       18.5314487782
 Ga        20.2481771405       17.4851008360        9.0672225543
 Ga        23.2429748718       14.7324139922       20.3341695730
 Cl        27.3384127401       24.1852024404       15.3653926470
 Cl        19.6141686973       27.1897883297       10.4674770619
 Ga        17.4322974445       14.6592953337        9.1445964036
 Cl        18.9706529634       26.9491589143       16.2365951640
 As        18.9190559998       21.6799139232       16.1025939607
 Ga        20.3334910006       17.4982306996       14.6671402297
 Ga        20.4936242894       17.2691491739       25.9220253675
 Ga        17.6586546252        9.0711569679       20.2459269287
 As        16.1534543809       24.4722892232       21.7249518733
 Cl         7.8864916130       10.5400846843       15.4331525346
 Cl        24.1887531427       21.7051591017       10.4311899323
 Ga        20.2541148678       20.2577839378       11.8456522853
 Cl         7.9380925309       13.4589222346       13.3863982397
 Cl         7.5686815267       13.7336722024       18.4662892056
 As        24.6226654156       21.6619548774       16.0168102058
 Cl         7.4338884838       15.8382502340       10.5985316899
 Cl         8.0691444312       16.1956206726       16.1779241566
 Cl         7.6495984873       16.6004804296       21.4515307108
 Cl        21.5208993975       27.2732306339       18.5357706713
 Ga        23.0834602656       17.4221415739       11.7563758887
 Cl         7.8133824014       18.1064800484       13.3728745698
 Cl         8.0694746380       18.9434952053       19.0048674270
 Cl         8.0023196445       19.6619565578       24.5637661432
 As        24.6044088786       16.0331289859       21.8145093000
 Ga        23.1649280405       17.5862539152       17.6599950796
 Cl         7.5518377541       21.2127106414       16.4894729350
 Cl         8.1147830717       21.7642658169       21.8372659654
 Cl        16.1527843602       27.0344339385       18.9951702170
 Ga        23.1737095968       17.4257925296       23.1674208871
 Cl         7.5763554043       24.1253782100       19.4037425318
 As        21.7951027812       24.4969671039       16.0322393469
 Ga        17.5802909682       14.6762236868       14.6675655496
 As        18.8770816732       16.0951158178       10.4581285160
 As        21.6430293916       18.8933563832       10.4432593796
 Ga        20.3272354473       20.2591012057       17.5059965169
 As        24.6278635354       24.5580162717       12.8287124451
 Ga        20.4226518785       20.2508685410       23.1569519525
 Ga         8.9909824355       12.1374628516       14.6646292529
 Cl        15.5113433751       27.0435514524       24.6026248762
 Ga        22.9967916573       20.2496236413        9.0733583052
 Ga         8.8311574676       16.6223210554       11.9089453556
 Ga         9.2283108378       14.6709331825       17.5936608812
 Ga        17.5793805405       14.5916471471       20.2650679876
 Ga        23.1600111110       20.2465240945       14.7360201971
 Ga         9.3978959465       17.5027071487       14.9085197455
 Ga         9.2317941166       17.4986503411       20.4116471140
 As        18.9946013391       21.6326505626       21.7037279709
 Ga        23.1761926347       20.3283663571       20.4119919273
 Ga         9.1561074055       20.4152066347       17.5848097051
 Ga         9.3078742246       20.3344362026       23.0894441700
 Cl        24.2461449711       27.2469353234       15.4256716939
 Ga        20.3450463457       17.4973479899       20.3429129695
 Ga         9.2414546811       23.3219535723       20.4101626457
 Cl        21.4812775459        7.5757665330       16.3943975404
 Ga        23.4809058080        9.2481388652       20.3263441546
 Cl        21.9328590856        7.9944376242       21.8018857379
 Ga        23.0820659654       23.0091699324       11.9997902201
 Ga        17.6574673600       25.6833622443       14.8303231241
 As        19.0373130961       10.4661934261       21.6233110213
 Ga        20.1820640419       23.0059679499        9.0855458582
 Cl        10.5330916919        7.7636497488       15.4815210138
 As        21.7429498400       18.8717808998       16.1227916394
 Ga        20.4065329211       23.0079365306       14.7381640735
 Cl        10.4722336193       10.9851531832       13.1574328145
 Ga        17.4234525295       23.0962694098       11.9045297411
 As        24.5686508545       18.9418454286       19.0369572382
 Ga        20.3419711584       23.0912252827       20.3275661407
 Cl        10.8075438339       13.3274225216       10.6023580327
 As        10.5028523050       13.2376809685       16.1602718963
 Cl        13.5824706752       10.4508834080       21.3622941757
 As        21.7764077460       18.8674701923       21.7439851267
 Cl        10.5508868040       15.4689342955        7.8737616799
 As        10.5690569973       16.0828056514       13.4216167877
 As        10.5678994037       16.1050967217       18.9695897388
 As        18.8419434454       21.6850086756       10.4960315123
 Cl        19.1012142223        7.9910654197       18.8240898159
 Ga        22.9172704046       22.7659137254       17.1873975007
 Ga        17.5056811541       23.0915063099       17.4973759867
 As        10.5859408088       19.0128017390       16.2308605117
 As        10.6498283016       18.9187302368       21.7527774669
 Cl        10.5414905480       19.1472513152       27.3143704819
 Cl        19.5686174081        7.6446256986       24.3175512885
 Cl        13.4340812191       21.4951601013       10.5693239341
 As        10.5172379546       21.8078562707       18.9701203227
 Cl        10.7238785207       21.8344273368       24.2244276919
 Ga        17.5840410342       14.5053190452       25.8482431674
 Cl        21.7039647611       24.1230220928       10.4753915921
 Ga        17.5016286593       22.9275644573       23.0147305369
 As        10.3006295508       24.7964667418       21.9429552972
 As        18.9453144298       16.1097298084       16.0962253298
 Ga        23.2504814933       25.6795394111       14.4310215964
 Cl        11.0050929347       27.5377325067       19.4131194152
 Cl        18.5938155210        7.6403789025       13.5632851409
 Ga        20.5725774882        9.1638798441       17.4137216283
 As        21.9393263215       10.4936507262       18.8695915138
 Ga        20.3319356215        8.9953083831       22.9312994868
 Cl        21.2269026712       18.4131270207       27.5253234749
 Ga        23.4046301906       14.4974207030       25.7535395454
 Ga        12.4750064185        8.5069398513       15.4732634742
 As        18.9635692143       16.0133475217       21.6909858074
 Ga        19.6008478069       26.4109644727       12.3967913242
 Ga        12.1519325935       11.9038642451       11.9074262236
 Ga        11.9148743644       11.8341996453       17.5826284424
 Ga        25.9893576835       11.7513201277       20.4845401371
 Ga        11.9890294222       14.6704783214        9.1612935991
 Ga        11.9256113142       14.5854096160       14.8236711568
 Ga        11.9840155880       14.6577689728       20.3385765368
 Cl        21.6876954597       21.7447784607        7.9100130430
 Ga        23.3177754734       11.9820548685       17.4968604502
 Ga        11.9970470915       17.4210751691       12.0689875370
 Ga        11.9296796760       17.5004317936       17.5711723296
 Ga        11.9874924801       17.4192971831       23.1716453531
 Cl        18.9942859395       15.8955559244       27.0388469153
 Ga        17.5806938340       17.4158944213       23.0890892626
 Ga        11.9130500469       20.3453075690       14.6775023620
 Ga        11.9172167468       20.3322546604       20.2570967553
 Ga        12.5525064194       19.3517512989       26.8087389002
 Cl        18.8476993628       18.9541813602        7.9188709945
 Ga        11.9094917823       23.1666490770       17.5015251819
 Ga        11.8353008118       23.2473509421       22.7566933162
 Cl        21.6631640425       10.5178588046       24.2980384237
 As        21.7000441718       21.5724465112       13.2871543363
 Ga        11.7604492231       25.8427807146       20.4053990126
 Ga        20.4170362778       14.5961923234       23.0899023159
 As        18.8870019652       18.8953224291       13.2787606954
 Ga        17.4162871695       20.3287038743        9.0811455309
 Ga        20.4212816670       25.7611892884       17.5875491902
 As        24.4136033176       18.7630023717       13.2766627633
 Ga        26.0044115067       14.6664464424       17.6646498448
 Ga        20.4274788751       11.9800378544       14.5954015558
 Cl        13.4576932239        7.8275567758       13.5888063508
 Cl        16.6706180758        7.4601054652       21.1677791114
 Ga        25.9215486880       14.5144284472       23.2592535936
 Cl        18.4029565010       13.7389304395        7.5287385714
 As        12.9940193736       10.2834206405       10.4490486280
 As        13.3885981602       10.6011476083       16.0805273840
 Ga        17.4946265453       20.3256809266       14.6663072184
 As        21.7315312370       21.6640957814       18.9190620469
 Cl        13.2124134979       13.2131164607        8.0293584004
 As        13.3625589657       13.3400272851       13.3588265718
 As        13.3545883758       13.2705265118       18.8939716971
 Cl        13.4570665461        7.5462595419       17.4193213065
 As        16.1810388844       21.5919110025       24.4927840383
 As        13.3127579998       16.0819288312       10.5488279676
 As        13.3179417125       16.1099531097       16.1096779815
 As        13.3756401246       16.0576825906       21.7366091462
 Cl        13.5559548170       17.2434360608       27.4590846855
 Cl        13.5275605617       18.4674934195        7.6606094779
 As        13.3374028744       18.9449862217       13.3009014341
 As        13.3558647819       18.8985062485       18.9348310882
 As        13.3589676062       18.8835379892       24.5630530296
 Cl        24.3787049415       19.6434271051        7.6450957944
 Cl        24.2592376927        7.5554217563       19.3429368678
 Cl        16.5036701868       21.4248983090        7.5439741697
 As        13.2989513463       21.7555110389       16.0964581779
 As        13.3319191297       21.7485944845       21.6424122680
 Cl        13.6123237490       20.9265735258       27.7334806718
 Cl        21.4880762139       24.4190090726       21.5155899615
 Cl        16.4341348695       24.5232250550       10.6968934392
 As        13.2826547551       24.5678844999       18.9651174644
 Cl        13.2928008544       24.3912508002       24.2047542579
 As        21.8413696541       13.3354276313       16.0637685024
 As        18.9145434031       18.8770926062       18.9224660679
 Cl        13.8797198560       27.5579035629       16.5141029263
 Cl        13.3546300173       27.0214395789       21.8372063634
 As        21.8266843284       13.2577107708       21.6744582844
 As        24.5448121883       16.1297935805       16.3676872270
 Cl        15.9061360640       24.3207027482       27.6524334766
 Cl        21.8735581643       12.9081279045       26.9121175416
 Ga        17.5018954521       17.4980750811       11.8433947440
 As        21.7666485385       16.1137846806       18.9556220274
 As        19.1123833752       18.6878190298       24.4685615974
 Ga        20.4988529502       11.8408907516       20.2399740011
 Ga        14.5998598411        9.2283807190       11.8462781183
 Ga        14.9098621107        9.3086429013       17.3456099106
 Ga        25.5974179110       17.0893933322       14.5020851167
 Ga        14.5818220392       11.6703822118        9.3194823868
 Ga        14.8264259813       11.9135329574       14.6571984415
 Ga        14.7514151991       11.8321984675       20.2662827230
 Ga        25.9251433750       17.5057348743       20.4879329968
 As        24.7945624384       12.9597007909       24.6579695810
 Ga        14.7488088720       14.6783022833       11.9141586942
 Ga        14.7433484132       14.6649596573       17.4991289849
 Ga        14.7500178254       14.5793097986       23.0855812987
 Ga        20.3263070927       11.7611618941       25.8414653123
 Ga        14.6605927571       17.5114704417        9.1534692129
 Ga        14.7377729173       17.5006274036       14.6731601452
 Ga        14.7466379835       17.4393428707       20.3358029319
 Ga        14.9077402083       17.4913364890       25.6824894798
 As        24.8202099331       10.2968514133       21.9484849755
 Ga        14.6696244082       20.3381657191       11.8364577414
 Ga        14.6746471482       20.3314116626       17.4893953538
 Ga        14.5944752468       20.3222461053       23.1038868757
 As        18.9285884862       13.3066394861       13.2371062315
 As        19.0914241418       10.5244425801       16.0254247952
 Ga        14.6659500969       23.1629754105       14.6676444546
 Ga        14.7413213733       23.1573105118       20.2534179055
 Ga        16.7782414656       23.0901327349       26.2346524472
 Ga        17.5093067328       11.9073496084       11.8362782555
 Ga        14.6678155259       25.9256445582       17.5739400030
 Ga        14.7446774815       25.8331251406       23.0862506541
 Cl        21.2887171779       16.6459985514        7.4508810034
 Cl        21.6083305515       13.5986226751       10.5391946725
 Ga        17.5091783063       17.4954449079       17.4952107544
 As        21.7155067386       16.1125684790       13.2573412067
 Cl        19.5331817939       10.3415566901       27.1395279275
 Cl        24.0588187145       15.4686578764       27.5046057135
 Ga        23.5043956945       12.0032343914       22.9208353462
 Ga        17.5681940411       11.7556003961       23.0801167690
 Cl        15.5174095485        7.5848194783       10.9021567988
 Cl        16.3324865789        8.0567304762       16.0840749127
 Ga        17.6593915171       20.0920268298       25.6002430579
 Ga        26.4937145278       19.4412715009       12.4044905935
 Cl        15.5512915542       10.7511916797        7.6948915529
 As        16.1281222390       10.5008198530       13.2496688126
 As        16.2560477959       10.4780519399       18.8866714847
 Cl        16.5354913098       13.5652716500       27.4077298672
 Ga        25.9358128722       20.2618452475       17.5852311957
 Ga        20.3322223188       14.6694877996       11.8362572184
 As        16.0272401492       13.2594197916       10.4856075043
 As        16.1874864280       13.2915052150       16.0996444368
 As        16.1836589707       13.2017981099       21.6795744768
 Ga        17.5083710809       20.2672878746       20.3322449655
 Cl        16.0123079759       16.1063234879        7.9707457825
 As        16.1404059455       16.1002839005       13.2899604559
 As        16.1543569125       16.0637607487       18.9078590050
 As        16.2248994528       15.9541337216       24.4820196877
 Ga        17.6604948218       11.8456220065       17.4255605793
 As        24.6598946198       13.2763097411       19.0301754128
 As        16.0861895520       18.9091586202       10.4794967963
 As        16.1085824394       18.9202242742       16.0994392073
 As        16.1111939104       18.8940999435       21.7704626168
 Cl        16.4033557316       18.7642263407       26.9551657935
 Ga        20.4193853702       14.7316408062       17.4862164379
 As        16.0625054691       21.7129047220       13.2944223152
 As        16.1196152523       21.6957719299       18.9061692982
 Cl        21.3452152425       21.5796601525       24.5274403998
 Cl        25.0557973261       14.8934414420       13.4622059872
 Cl        16.4460955840       10.4510667907       24.3022717637
 Cl        24.5773525824       10.8586583888       16.2118683822
 Cl        21.6865843482       10.8022375748       13.3678350634
 Cl        18.6652629692       10.6885094435       10.5529312582
 Cl        24.3491467840       16.4839240720       10.3486640771
 Cl        10.1850215230       18.1580097765       10.8172257450
 Cl        10.5484202462       21.3932810918       13.4409116277
 Cl        13.5495832370       24.5088957885       13.4822384841
 Cl        10.6600902518       24.4448973248       16.3688623970
 Cl        10.7250270679       10.4694936552       18.6603156556
 Cl        10.6740093107       13.4593693043       21.4869684555
 Cl        13.5713343391       13.4435334629       24.4223424425
 Cl        10.6953048900       16.3090187629       24.4154151654
 Cl        18.2424114957       24.2037781682       24.8428643624
 Cl        24.2808830342       18.6744358165       24.4732939680
 Cl        24.2840488284       21.7215286016       21.5505302378
