     149
 i =       39, E =     -3747.2063222442
 Hg        12.9545249672       14.0925548431       11.8519628961
 Hg        12.9522434744       11.6368991300       14.7577996194
 Hg        11.2515614221       14.9126692966       15.0180002913
 Hg        16.3933318700       16.3027980979       10.7412936184
 Hg        16.3090638069       13.6012952122       13.9174381785
 Hg        14.1183139897       17.2498308912       14.0645573349
 Hg        16.3639044188       10.9014613785       17.1258422950
 Hg        14.1039451849       14.3612195194       17.4957184659
 Hg        12.3250694328       17.7451704551       17.4013765636
 Hg        19.6390175982       15.8957958251       13.2165153237
 Hg        17.5692895026       19.4572658676       13.3842281512
 Hg        19.6271167070       13.2792403270       16.3308629851
 Hg        17.5007085891       16.7798203866       16.6258729364
 Hg        15.1847700440       19.9868024736       16.8158379000
 Hg        17.5444379337       14.0554820295       19.7915459412
 Hg        15.1717302708       17.5332993517       19.7447246320
 Hg        12.1828127410       11.1779065032        9.4660150572
 Hg         9.9538022770       14.8430981833        9.6096401281
 Hg        12.1796751933        8.7874107017       12.2775190508
 Hg         8.6655991847       11.7566052115       12.3447553252
 Hg         7.8575505611       15.6377995893       12.6491068082
 Hg         9.9234017300        9.5978298390       15.8362648205
 Hg         7.8130665242       12.7306463328       16.1366524557
 Hg        15.1726453171       13.1798235842        8.7287676124
 Hg        12.7989858580       16.9635024572        8.4443401691
 Hg        15.5186572379        9.9320239739       10.8329721623
 Hg        10.2334788842       18.3192231789       11.3402303049
 Hg        15.1547429086        8.4045077189       14.3814170271
 Hg         8.7716199698       18.3909516921       15.0838468258
 Hg        12.7528215808        8.7620518114       18.1652861928
 Hg        10.2164813297       11.8839324557       18.9622586990
 Hg         8.7686134885       15.5991260418       18.4041842917
 Hg        18.6891706408       14.1659981153        7.3914319444
 Hg        16.0905677005       18.9493781685        8.1385670798
 Hg        18.6637889271       12.3777174283       10.5277417352
 Hg        13.8211420134       20.0410087342       10.9045356325
 Hg        18.6457634248       10.0536877109       13.3322044516
 Hg        11.3322892095       21.2248764298       13.7999692989
 Hg        18.6601496243        7.2347873115       15.5951514931
 Hg         9.9226486174       21.2028702571       17.3455858107
 Hg        16.0480993053        8.7965642154       20.1830519681
 Hg        13.7943886984       11.7235505207       20.7605175331
 Hg        11.3045680063       14.7865527424       21.4195391146
 Hg         9.9054717732       18.2755926476       20.8139376452
 Hg        21.4401060179       14.9994736861       10.0283940421
 Hg        18.9474608781       18.7743112239       10.1277425879
 Hg        17.1322835619       21.7305844089       10.4788287638
 Hg        21.8894664237       12.3537731284       12.9031785838
 Hg        15.0461189402       22.9426686671       13.4913645581
 Hg        21.4183010158        9.9650220807       15.9899916151
 Hg        13.0788073947       23.1815156118       16.6651984079
 Hg        18.9095197616       10.7185460279       19.6769125017
 Hg        12.3179801786       21.4539510030       20.5313996455
 Hg        17.0849752134       11.5754286345       22.5257584381
 Hg        14.9861869414       14.7466308620       23.2231720837
 Hg        13.0493240221       17.9361537625       22.8836061064
 Hg        22.6361536321       18.1292529242       12.6852927662
 Hg        21.5375969727       21.7102283876       13.7882352944
 Hg        23.1027128735       15.5535963252       15.6213235462
 Hg        21.1203920131       18.9874788679       16.1150806073
 Hg        18.5010254455       22.0229547071       16.2048580786
 Hg        22.6022541473       13.1051922032       18.6498222838
 Hg        21.1345736245       16.6645649146       18.9223339669
 Hg        19.3802922497       20.2060940641       19.5145633384
 Hg        16.5040827473       22.6972182786       19.2139407353
 Hg        21.5085193176       14.7989537539       21.9863810027
 Hg        18.4712771131       17.2352731977       21.8522101471
 Hg        16.5100900037       20.3300240484       22.0347446410
  S        14.4321629616       12.2426255475       12.7784738917
  S        11.9881734787       16.1443273848       13.0006524558
  S        11.9759742624       13.1288043389       16.5734279612
  S        17.8424053237       14.5442118537       11.9656655383
  S        15.5477066753       18.3213965711       12.1728543672
  S        17.8248230199       11.8278855643       15.2027280192
  S        15.5148785392       15.4963032240       15.5249674427
  S        13.1311787711       19.1776494906       15.5534297872
  S        15.5257513354       12.6694876695       18.8672860260
  S        13.1151383115       16.1629771867       19.1313364645
  S        19.0734521208       17.8670950585       14.7717274446
  S        19.0736931642       15.1462862300       18.0122778803
  S        16.8553399156       18.6934714707       18.2296620723
  S        13.2293734680        9.0096880599       10.0437423630
  S        10.8561434229       12.8339612280       10.7131321087
  S         8.4304413448       16.5867921246       10.4645838932
  S        10.8547609757       10.3218659148       13.6776504517
  S         8.7025948348       13.6072649930       13.9137943064
  S         8.4004742057       10.7253230987       17.4141583836
  S        16.7857467235       11.3673373457        9.1384002416
  S        14.2547610911       15.2148371799        9.7589605884
  S        11.9062088775       18.9733419328        9.6114631713
  S        16.7795489543        8.5059389975       12.5382400366
  S         9.3446639956       19.8325877233       13.1400365179
  S        14.2278005728        9.7556563610       16.2155116818
  S         9.9702415649       16.7366489190       16.5315979778
  S        11.8669763548       10.2825421228       19.9252517440
  S         9.3181373746       13.9140255144       20.1467543093
  S        20.5595510790       13.2983854136        8.5103540395
  S        17.8495211199       17.2341389494        8.6422274176
  S        15.3545489078       21.1472768409        8.9096613005
  S        20.3130301598       10.8686329677       11.6501634831
  S        13.0759858339       22.0774447373       12.2368256983
  S        20.5371531771        8.1888976569       14.5623252404
  S        10.7901789147       22.8878719624       15.7927865111
  S        17.8099667938        8.9931288204       18.4105987623
  S        11.0505801914       19.8705805349       19.1955493389
  S        15.3010398380        9.9366015676       22.2095234259
  S        13.0252431262       13.3745866896       22.5409890741
  S        10.7636380849       17.0250023274       22.7379239379
  S        21.0171762521       17.1223512694       11.1583157162
  S        19.1482253405       20.6971039840       11.5580781709
  S        21.1820891852       14.2486271969       14.4964552331
  S        16.5468158374       21.2981790213       14.8905291783
  S        20.9860721948       11.4414224732       17.8876482022
  S        14.2900070493       21.9648708846       18.4309843602
  S        19.1080188093       12.4528472848       21.3320596541
  S        16.5088874750       15.8372098768       21.3599635432
  S        14.2881627382       19.4674035472       21.4099308191
  S        23.0882118494       19.9985848137       14.1945530968
  S        22.7775364562       17.4575253310       17.2094018214
  S        20.4570853190       21.1050223925       17.3822150040
  S        23.0674977923       14.9033801143       20.2375526167
  S        20.4388144397       18.2547400457       20.7873899297
  S        18.0771735183       21.9200319585       20.9593221209
 Cl        12.9185073887       23.1947906421       22.0026367461
 Cl        16.7442363422       23.9604930247       11.7676244604
 Cl        10.9789595153       15.4658177991        7.3214379379
 Cl        16.6875556199       13.2193992889       24.5083834393
 Cl         7.9718091813       10.0382896565       10.8902407166
 Cl        24.4422652688       13.6622663582       16.8643475802
 Cl         7.6708264170       17.6363033477       19.8312602045
 Cl        17.8028968070       24.2081997123       17.5510139083
 Cl        14.3671251694        7.0204456900       19.2757726292
 Cl        17.7852000275       18.9350196473       23.7965689636
 Cl        14.4776679251       24.8098882726       15.2240969018
 Cl        13.2442540032       12.0539563428        7.2712906554
 Cl        10.9339179705        7.4379224132       16.8492904825
 Cl         6.5225053085       14.5921612901       17.2388192835
 Cl        19.9906551842       15.1523988939       23.7342116550
 Cl        23.3621064937       10.8091012297       14.4473348632
 Cl        16.6333132781        6.2283246848       16.1957363813
 Cl        23.3729838236       13.6092802175       11.1253981806
 Cl        20.0290673330       23.5015595453       13.8353094697
 Cl         6.5466546287       17.0804545487       14.2637492566
 Cl        13.2260955371        6.7732438251       13.5129925841
 Cl        14.4151320247       17.7649607269        6.5351581520
 Cl        16.6685656358       14.5960219223        6.2894285470
 Cl        24.4580314537       16.4577986092       13.5501830217
 Cl        14.4351919573       16.7830628110       24.7469998243
 Cl         7.6860530953       20.1359036198       16.8629891778
