      35
 i =       14, E =     -1206.4010224631
 Zn         9.7428782593       14.9068818358        9.7730396967
 Zn         9.8559884480        7.0877324405       12.2280365725
 Zn        12.5496310240       12.6235761227        9.3691718093
 Zn        14.9085458503       12.2375060954       12.1478321917
 Zn         7.0857373045       12.1519210260        9.8468656750
 Zn        12.1529828209       14.9134365490       12.1529971333
 Zn        12.1536805638        9.7761081665        7.0897311372
 Zn         7.1352793774        9.7703253031       12.2399125161
 Zn         9.3753155570       12.6257108945       12.6266371916
 Zn        12.6261104403        9.4490858788       12.5549923414
 Zn         9.7598767690       12.1517299068        7.0916277622
 Zn         9.8531700510        9.8286177276       14.9128893747
 Zn        12.2281422698       12.2317424149       14.9052352076
 Zn         9.3783019388        9.3715318067        9.4449043310
 Zn        12.2283921778        7.0906807181        9.7797653736
 Zn        14.9091846009        9.8494099234        9.7667080345
 Te        10.9785482735       11.0181782675       10.9981275137
 Te        10.8548090660       14.2126535373       14.1844945026
 Te         7.8297163359       11.1430326134       14.2237729061
 Te        11.2195058166        7.8511451875       14.1902794432
 Te        11.0744577587       14.1816189275        7.7728206925
 Te        10.8221474227        7.7843623499        7.8258472134
 Te         7.7746563995       14.1797855294       11.1564585666
 Te        14.1337859509       11.1645048599        7.7741568112
 Te        14.1480677919       14.2172319570       10.7981641297
 Te        14.2198932592       10.8978427291       14.1531647191
 Te         7.8300749597        7.7630371979       10.9075764018
 Te        14.2175778145        7.8497543128       11.1167734868
 Te         7.7796507356       10.8016416754        7.8478882291
 Cl        10.9438264792       10.9599684040        5.5060014978
 Cl         5.5271396984       10.9468896130       11.0597830167
 Cl        11.0636252990        5.5180965421       11.0260375714
 Cl        10.9418842879       16.4889186177       10.9631738193
 Cl        16.4935745391       11.0611285797       10.9396525841
 Cl        11.0503061495       11.0336430685       16.4914018287
