    1259
 i =      113, E =    -44527.4725344500
 Zn        31.6921543848       20.1785165682       39.9280766643
 Zn        34.6946370081       20.2524361826       14.4584280763
 Zn        31.7639369030       39.8601133827       20.1659908005
 Zn         9.1519296345       28.1008467469       15.1805501907
 Zn        14.9429285237       34.0511908274       14.7128530777
 Zn        20.8225545002       39.8445566854       15.1779499848
 Zn        39.7728479094       26.6282197268       15.5090422045
 Zn         8.9986482064       25.4876500490       17.7180760756
 Zn        11.6783371348       28.7378228949       17.3204547286
 Zn        14.4689482427       31.6047992211       17.2292153889
 Zn        17.3872608939       34.4651320515       17.2297104345
 Zn        20.2496529997       37.3204168381       17.3202219461
 Zn        23.4390315238       39.9984331032       17.7150217896
 Zn        25.3251064998        8.7372510135       14.2934289667
 Zn        39.9233577657       14.8524995201       20.5792787547
 Zn        23.0293622801       31.5983084997       20.1732626376
 Zn         9.0664752715       22.9446403421       20.3289667426
 Zn        11.8291561345       25.8784599751       20.2524210187
 Zn        14.5445294728       28.7523984114       20.1721731647
 Zn        17.3281057829       31.6039344609       20.1081207502
 Zn        20.1809095325       34.4456205787       20.1083760630
 Zn        23.1103240571       37.1670311452       20.2445333627
 Zn        26.0525382807       39.9369040126       20.2655210968
 Zn        34.6180107848       11.8400555727       23.1105907221
 Zn         9.0771874836       31.7550881454       28.8215274030
 Zn        33.7306018590       22.2889253953       40.1749687692
 Zn        32.0062234551       14.2992231703       12.4027654552
 Zn        12.0849664047       14.7048575861       20.1567018973
 Zn        12.0882505236       34.2948966090       28.8397849794
 Zn         9.0671969361       20.2571990685       22.9538510850
 Zn        11.9101923404       23.0386255545       23.0463022753
 Zn        14.6220917860       25.8948097852       23.0446505769
 Zn        17.3947987091       28.7503973121       23.0254822844
 Zn        20.1839994888       31.6014629769       22.9619970548
 Zn        23.0319945538       34.3678687196       23.0289195068
 Zn        25.8992970970       37.0873632443       23.0317342562
 Zn        28.7422310315       39.8732046520       22.9506172487
 Zn        28.2531253468       15.1838627207        9.1745031454
 Zn        14.7143273451       36.9172502465       28.8373327444
 Zn         9.0687493061       17.7142457035       25.5716791772
 Zn        11.8354072732       20.2569115895       25.8897057293
 Zn        14.6266490403       23.0390586563       25.9586430798
 Zn        17.4072888608       25.8891483776       25.8902703355
 Zn        20.2517243227       28.7490827842       25.8260525340
 Zn        23.0973645723       31.5901759049       25.8799872454
 Zn        25.8936760639       34.3727220664       25.8886377242
 Zn        28.7363195098       37.1532472801       25.8091761683
 Zn        31.4316182352       40.0251354423       25.5779812127
 Zn        38.1268990515       20.0094770351       12.7347893884
 Zn        17.3097253256       39.9242023208       28.7496944100
 Zn         9.2339674348       15.1789632533       28.2618291238
 Zn        11.6934692487       17.4030048878       28.8185748476
 Zn        14.5493734361       20.1820797312       28.8240095117
 Zn        17.4017917882       23.0348471693       28.8104535638
 Zn        20.2492465507       25.8906076538       28.7409108277
 Zn        23.1142902557       28.7538113616       28.7328195671
 Zn        25.9555657500       31.6029717137       28.7473388485
 Zn        28.7470074949       34.4482246888       28.7397268298
 Zn        31.5985235797       37.3185476339       28.7411583956
 Zn        33.8169815453       39.8431151964       28.1823820460
 Zn        14.6240698550       17.5539198241       20.2516391990
 Zn        17.4738352176       20.3222713555       20.3238840110
 Zn        12.4109115760       14.3053254137       32.0070189065
 Zn        14.5345795039       17.3827588003       31.7479502114
 Zn        17.3988262907       20.2455028469       31.6727934875
 Zn        20.2541661593       23.1072937858       31.6036365916
 Zn        23.1133320303       25.9568286005       31.5407788891
 Zn        25.9702921295       28.8248876236       31.5999236662
 Zn        28.8203517956       31.6846693887       31.6083098577
 Zn        31.6037044474       34.6207036715       31.6003434344
 Zn        34.3011916408       37.4772836926       31.1908873327
 Zn        14.4501944973       25.7318482926       11.7587883589
 Zn        20.2563734231       23.1098592705       20.2506511689
 Zn        14.9416625380       14.9446184945       34.2886595990
 Zn        17.3984804096       17.4733072395       34.5442480505
 Zn        20.2527383444       20.2579512159       34.4506462019
 Zn        23.1059671904       23.1165968497       34.3796555437
 Zn        25.9596894691       25.9638958041       34.3742772617
 Zn        28.8139210518       28.8319321129       34.4455066489
 Zn        31.6188514768       31.7664957747       34.4608134009
 Zn        34.0589108431       34.3623609782       34.0526538558
 Zn        17.4602738010       28.6655680512       11.6720843407
 Zn        18.1264453394        8.9836025347       30.9526748522
 Zn        31.6733508874       20.2541092063       11.6784217936
 Zn        23.1040296053       25.8925407171       20.2489114764
 Zn        17.8793515611       15.0276745546       37.2332871518
 Zn        20.2603420006       17.4021163611       37.3177732129
 Zn        23.1249163740       20.2661705739       37.1598455128
 Zn        25.9595972297       23.1038720221       37.1483429737
 Zn        28.7398966836       25.8920335856       37.1707154598
 Zn        31.5958091825       28.8234375561       37.2509401608
 Zn        34.7071416776       32.0747229357       36.5738776773
 Zn        20.2686113384       31.5326123606       11.6726913499
 Zn         9.0755299769       20.1001023976       17.3147282030
 Zn         8.8227508474       15.2639341193       22.3012241339
 Zn        11.8460770580       17.4757108572       22.9487418207
 Zn        23.2040281834       34.5446445014       11.7577885385
 Zn        14.6292661395       20.2521569561       23.1090774597
 Zn        25.8825684100       28.7429583118       20.2508938208
 Zn        28.6757594542       31.5230311751       20.2678405521
 Zn        20.5789508963       14.8560768251       39.9225938297
 Zn        23.2749964150       17.4831621157       40.0913944643
 Zn        25.9716569831       20.2489213214       39.9358648387
 Zn        28.6683247760       22.9528213639       39.9358320623
 Zn        31.2782734572       25.5725407825       39.9296476629
 Zn        33.8161605283       28.2604897661       39.7661874565
 Zn        33.8222188998        9.1556544673       20.8229059051
 Zn        11.8389161745       22.9344179851       17.4855375990
 Zn        14.5421316858       25.9629768574       17.3209166710
 Zn        17.3279181607       28.8074786581       17.3069314263
 Zn        34.7101725440        8.7339777555       23.7625610407
 Zn        28.8394458747       37.0695278503       20.1686008633
 Zn        20.2526442046       11.6784410459       31.6122339089
 Zn        20.1774513486       17.2447610743        9.0727152728
 Zn        22.9527901526       20.3218430198        9.0627915548
 Zn        25.8836249128       23.1865954661        9.1245908481
 Zn        28.6703385509       26.1175265785        9.0646046957
 Zn        31.7520471226       28.8345249851        9.0735767742
 Zn        31.6776930581       11.6829157913       20.2507779388
 Zn        17.4084355113       23.1042589105       23.1100175065
 Zn        31.4423028625       34.3757639245       20.2472982001
 Zn        20.2461948261       25.8912092889       23.0365160723
 Zn        23.0257945197       14.5471972818       31.6735289724
 Zn        20.1464031968       14.7084762879       12.0855782728
 Zn        22.9469546446       17.4789067780       11.8413170768
 Zn        25.8936917639       20.2546221700       11.8283196840
 Zn        28.7487646532       23.1149576863       11.8312713066
 Zn        31.5191268236       26.0616275324       11.8410098185
 Zn        34.2895593514       28.9101506603       12.0816890409
 Zn        34.6962586567       14.4679645740       20.1907575413
 Zn        23.0374692569       28.7543699309       23.0307175689
 Zn        25.8844446349       31.5929542669       23.0406418129
 Zn        25.8839203356       17.4090698230       31.5947483070
 Zn        20.0948388552       12.0828471728       14.7130445929
 Zn        23.2663466408       14.5456036202       14.5524581569
 Zn        25.9761043929       17.3921403649       14.5486376232
 Zn        28.8275443836       20.1803208077       14.5475164813
 Zn        31.6751186782       23.0286797362       14.5427039081
 Zn        34.3907906326       25.8044858059       14.5440317831
 Zn        36.8378251363       28.9063294680       14.7754974005
 Zn        28.7394178944       34.3693711307       23.0385279965
 Zn        31.5960388393       37.1547908132       23.0287808300
 Zn        33.5650505967       39.7724987843       22.3023577451
 Zn        30.9568051242       18.1184227374        8.9871448956
 Zn        14.3627087115        8.6582722229       25.3264694236
 Zn        20.1787672801        9.0747747002       17.3047695685
 Zn        22.9480379009       11.8470441072       17.4796418437
 Zn        26.0277144740       14.5436337136       17.3955587797
 Zn        28.8361547656       17.3394147632       17.3904796005
 Zn        31.6838718747       20.1816150419       17.3327263005
 Zn        34.4510651635       23.0315730211       17.3911459593
 Zn        37.1628473356       25.9659288084       17.4703785427
 Zn        39.9282016130       28.8228987662       17.2338177984
 Zn        28.6755015307       20.3282376624       31.5260752146
 Zn        33.8177266891       20.8243445932        9.1554678765
 Zn        34.6444748653       23.7495578542        8.6631852382
 Zn        34.7061330267       25.3241717629       40.2626342923
 Zn        28.8183239521       17.4030031933       11.6817747874
 Zn         8.6601144750       34.6326707171       23.6001792421
 Zn        22.9632561086        9.0711506027       20.3267440242
 Zn        25.8891357871       11.8380113881       20.2643447966
 Zn        28.8275074127       14.5409677321       20.2474222214
 Zn        31.6883906046       17.3370020245       20.1811195590
 Zn        34.4470024323       20.2504847643       20.2514637219
 Zn        37.1665427308       23.1129615057       20.2588676698
 Zn        39.9384040704       25.9709873534       20.1783262665
 Zn        14.2880514925       40.1815307696       23.6768240377
 Zn        20.1825400699       31.6102842678       17.3105267875
 Zn        34.3006005243       36.8206945365       20.0836706346
 Zn        23.0282819678       34.4518818560       17.3161320072
 Zn        26.0570707274       37.1585127773       17.4709915364
 Zn        25.8797884121        9.1301891276       23.1860041303
 Zn        28.7498632485       11.7794202768       23.1157090008
 Zn        31.6813659236       14.5393578119       23.0287960852
 Zn        34.4526994588       17.3890337198       23.0294283972
 Zn        37.1615920578       20.2560408806       23.1738448450
 Zn        39.9373991042       23.1247454795       23.1214738460
 Zn        30.9584064747        8.9862785063       18.1217999051
 Zn        28.8388124316       39.9298841541       17.3109199216
 Zn         8.7377967352       23.7625303853       34.7077143179
 Zn        20.1762448600       31.7662913426       39.9277536052
 Zn        31.5978694299       23.1200296749       31.5949657535
 Zn        34.6169759100       23.1186886765       11.8302674557
 Zn        28.7442712267        9.0633322841       26.0556791161
 Zn        31.5233411406       11.8379925497       26.0603573377
 Zn        34.3894460037       14.5408094530       25.8043865668
 Zn        37.1661482235       17.4113859942       25.9671384060
 Zn        39.9390110008       20.1839774637       25.9764124435
 Zn        31.7589299149        9.0818782086       28.8988789468
 Zn        34.2895914918       12.0824794888       28.9133480481
 Zn        36.8364276487       14.7760753177       28.9202555255
 Zn        39.9279581666       17.3061974942       28.8316489212
 Zn        37.2370665579       15.0242708694       17.8864437671
 Zn        22.2865021081       33.8020403045       40.1739682420
 Zn        34.4507985868       25.9739269802       31.6054998404
 Zn        14.4639584888       11.7760620363       25.9631915343
 Zn        17.3915574510       14.5452721036       25.9784963575
 Zn        20.2461635882       17.4023930307       25.9720044980
 Zn        37.3104986744       28.8109437354       31.5367349053
 Zn        25.3193828695       34.7114411181       40.2670845314
 Zn        37.2406369585       14.3928550395       23.1979378713
 Zn        40.0892492638       17.4741053034       23.2740565080
 Zn        40.0138951811       30.9527136824       30.8753785147
 Zn         8.8141520573       14.2886693491       25.3219485328
 Zn        11.9185441196       14.3777254122       26.0440640112
 Zn        14.5506486464       17.3904375378       25.9729916217
 Zn        17.4045896429       20.1884820405       25.9686442280
 Zn        20.2448614622       23.0377406832       25.9582022165
 Zn        23.0445107552       25.9036109226       25.8970127698
 Zn        25.8896365227       28.7531571956       25.8903312226
 Zn        28.7491114581       31.6042183461       25.8969803838
 Zn        31.6058579414       34.4517770491       25.9592125008
 Zn        34.6215452903       37.3154377947       25.8836414624
 Zn        26.6919143296       15.5148863162       39.7726999238
 Zn        12.7452633810       19.8457996720       37.9618286204
 Zn         8.9828753556       30.8041962810       18.0403896993
 Zn        12.4065992174       34.6968294589       16.9124103051
 Zn        14.3032838614       36.5915533163       16.9179751444
 Zn        18.1192077208       40.0122887126       18.0401317285
 Zn        23.1013108183       20.2421309099       25.9602791880
 Zn        14.3779790068       23.1179731847       37.2481026704
 Zn         8.9836216881       28.4229713969       20.4914399810
 Zn        11.6916051210       31.5297047506       20.1741993836
 Zn        14.5316094757       34.4530817692       20.0279872253
 Zn        17.3982776371       37.3056742934       20.1661391197
 Zn        20.5030858493       40.0166375632       20.4839997168
 Zn         8.7360975951       25.1606400616       14.2882728770
 Zn         9.1376040351       25.8106754644       23.1876666289
 Zn        11.8362446544       28.7297808835       23.1154227574
 Zn        14.5430880510       31.6066533578       22.9590907680
 Zn        17.3875072686       34.4478904143       22.9597257146
 Zn        20.2582296815       37.1600931292       23.0461021473
 Zn        23.1816099756       39.8709511809       23.1144493587
 Zn        12.8157594480       28.9841200007       10.8648981804
 Zn        28.5066388898        8.9813937323       20.5021051993
 Zn        17.4657069356       25.9728878444       37.1632714483
 Zn         9.1329808683       23.1187111389       25.8147538068
 Zn        11.9123599300       25.8968329458       25.9501919252
 Zn        14.6247839582       28.7451020345       25.8875710968
 Zn        17.3958064825       31.5985247365       25.8137253205
 Zn        20.2483847772       34.3710812416       25.8762624603
 Zn        23.0335528902       37.0937588226       25.8898525144
 Zn        25.8050447829       39.8666951874       25.7985467208
 Zn        15.0261982582       31.0309823842       11.7585929734
 Zn        25.9043698258       23.1047227750       25.9012968769
 Zn        37.3182931693       17.4014795078       20.2627055402
 Zn         8.7582221791       26.7797078193       33.7261010016
 Zn        12.0824479200       28.9099887202       34.2220123225
 Zn        14.7836566184       31.5356992021       34.1445744637
 Zn         8.9836005442       20.4983803766       28.5014241696
 Zn        11.8275156422       23.1132634140       28.7414913896
 Zn        14.6256789922       25.8928050714       28.7441432900
 Zn        17.4706236058       28.6755094555       28.6662677207
 Zn        20.2681601125       31.5244066850       28.6598848451
 Zn        23.0453056025       34.3656390057       28.7347394958
 Zn        25.8131557005       37.1556476087       28.6673547212
 Zn        28.3339794708       39.6856663065       28.2603309027
 Zn        17.9642904865       33.9765052146       11.7591135719
 Zn        20.1656405598       28.8340711337       37.0745223000
 Zn        17.3030531245       20.1043945192        9.0756241376
 Zn        20.2480822830       22.9614078323        9.0628498486
 Zn        23.1910455090       25.8094572118        9.1292043720
 Zn        25.9723421069       28.8060030059        9.0612267193
 Zn        28.8349707140       31.6939079188        9.0715235473
 Zn        28.7508731095       25.9640577365       25.9564698368
 Zn        39.6870560050       20.5978132499       20.6555618827
 Zn        25.9684383335       11.8399307216       14.4638782403
 Zn        22.9442381294       31.5266755442       37.1540157542
 Zn        20.1697308249       20.1647234253       11.9237959307
 Zn        23.1049934109       23.0397454987       11.8531932207
 Zn        25.9592013006       25.9535649252       11.9043072391
 Zn        28.8324476159       28.8380442795       11.9253665193
 Zn        31.6014467601       28.8189907762       25.9655178399
 Zn        17.3009023617       28.8904032733       39.9244367792
 Zn         8.9876600273       18.1200017412       30.9561692062
 Zn        11.6807243065       20.2531055708       31.6119283538
 Zn        14.5444995478       23.0380516555       31.6109813065
 Zn        17.4027873814       25.8886935038       31.5972630558
 Zn        20.3225272228       28.7375325108       31.5232198974
 Zn        23.1172690782       31.6003148877       31.5884525366
 Zn        25.9604465164       34.4585946415       31.5985889395
 Zn        28.7451529734       37.3215452021       31.5269006921
 Zn        28.8281700038       17.3100035360       39.9283856837
 Zn        17.4713680727       14.7784203810       14.7861745842
 Zn        20.2507417504       17.5564308677       14.6237007553
 Zn        23.1115379956       20.2522958447       14.6250110084
 Zn        25.9635258738       23.0382882390       14.6230366735
 Zn        28.7547492169       25.8899695355       14.6268594490
 Zn        31.4363959253       28.8151671064       14.6240000411
 Zn        34.2088879349       31.5377334222       14.7848601769
 Zn        34.4540114616       31.6065601872       25.9625471644
 Zn        20.0084745525       36.1868485338       10.8651709803
 Zn        38.1343109421       12.8135798624       19.9339388675
 Zn        20.8223877311        9.1554680829       33.8146255663
 Zn        14.5515142811       14.5400908972       28.9055185438
 Zn        23.0471638952       11.8506510646       34.6251728594
 Zn        25.8920936659       34.6216872450       37.1544935856
 Zn        20.2529594664       14.6221247551       17.5597459033
 Zn        23.1773030037       17.3965737136       17.4049572944
 Zn        25.9765252062       20.1886392284       17.4017392802
 Zn        28.8207164554       23.0290950814       17.4006096984
 Zn        31.5923400820       25.8863317598       17.4044097825
 Zn        34.3747080185       28.7519357543       17.5645489623
 Zn        37.0810977788       34.6325297799       26.0358737717
 Zn        14.5383551616       20.2605118723       34.5508448626
 Zn        17.3949035497       23.0444157854       34.4517596026
 Zn        20.2682675475       25.9610425637       34.3659757122
 Zn        23.1130287180       28.7505563694       34.3771007580
 Zn        25.9709126167       31.6682126560       34.4527089113
 Zn        28.7477520774       34.6235152317       34.4510873291
 Zn        17.3030078008        9.0737023360       20.1771754978
 Zn        20.1733777630       11.9316726431       20.1688340171
 Zn        23.1119653408       14.6270366000       20.2540073155
 Zn        25.9703367261       17.3946540751       20.2481610590
 Zn        28.8267438271       20.1865679270       20.2323497631
 Zn        31.5996921863       23.0367721103       20.2441555104
 Zn        34.3731089141       25.8974699154       20.2611328539
 Zn        37.0742411911       28.8238898000       20.1625631593
 Zn        39.9334898300       31.6819869852       20.0999860250
 Zn        31.2039264373       37.4748275147       34.2221455640
 Zn        23.0399624014       28.7497504265       17.4017236890
 Zn        17.3938008710       17.3900758977       28.8321626596
 Zn        20.3291322569        9.1285022972       22.9609880936
 Zn        23.1075368574       11.9165077514       23.0488996830
 Zn        25.9646165618       14.6219581580       23.1055842311
 Zn        28.8246173680       17.3975413549       23.0405855659
 Zn        31.6014543752       20.2444158507       23.0385850257
 Zn        34.3829374939       23.1057295431       23.1058760498
 Zn        37.1554668838       25.8991074332       23.0390405238
 Zn        39.9396721178       28.6639918072       22.8816262489
 Zn        40.1881180528       34.7093007977       25.2295654256
 Zn        20.2479081034       20.2458213964       28.8189941355
 Zn        14.6916135021       17.8821442958       37.4041029064
 Zn        17.4034759460       20.2559816036       37.3095338769
 Zn        20.2683663426       23.1892252509       37.1567187581
 Zn        23.1017742631       25.9641483125       37.1478461289
 Zn        25.8895463243       28.7491922399       37.1652351834
 Zn        23.1896291522        9.1366861622       25.8149736146
 Zn        25.9626112435       11.9136435114       25.9603239107
 Zn        28.8105225270       14.6230752087       25.8930170348
 Zn        31.5967375103       17.4060926660       25.8870410153
 Zn        34.3731015291       20.2588157699       25.9011351181
 Zn        37.1533262975       23.0448717182       25.9020109182
 Zn        39.9330419619       25.8117597580       25.8071321518
 Zn        28.9099073725       14.5408842217       14.5479100917
 Zn        28.7513375175       31.6756980140       37.3090246302
 Zn        25.8791508469       31.5913105295       17.3976565036
 Zn        23.1050181703       23.1070026961       28.7529533651
 Zn        25.9590975858       25.9678473779       28.7478063978
 Zn        28.7522429051       28.8221630967       28.7519288709
 Zn        31.6057612433       31.6853650147       28.8149788833
 Zn        34.4519391124       34.6175060940       28.7500904379
 Zn        26.0516926954        9.0652637943       28.6745244966
 Zn        28.8355515364       11.9252136537       28.8329821661
 Zn        31.4434708495       14.6242608347       28.8213720280
 Zn        34.3741604146       17.5632798388       28.7582963406
 Zn        37.0739899035       20.1670874559       28.8245625753
 Zn        39.9340870282       22.9472521455       28.6646082654
 Zn         8.7530818267       22.1447802538       15.2727998483
 Zn        36.1774601723       38.0416551739       29.1607927321
 Zn        25.8853130024       34.3770513714       20.1939208170
 Zn        20.6646889739       20.6680285584       39.6301504354
 Zn        23.1857329474       23.1918076957       39.8731306627
 Zn        25.8194904359       25.8824294674       39.9347327720
 Zn        28.8357521672        9.1409124106       31.7511493414
 Zn        34.2120063413       14.7859527856       31.5959752393
 Zn        39.9282470058       20.1778619297       31.6932704943
 Zn        11.8443483563       25.8798030967       14.3745274936
 Zn        28.5028251702       28.5052544383       40.0138845279
 Zn        30.8814698386       30.9566999429       40.0069428699
 Zn        28.7646876992       34.3820953197       17.5530564078
 Zn        25.7966645224       14.5440972877       34.3951557132
 Zn        29.2214455560       38.0444262468       36.1080778232
 Zn         9.0745598496       17.2333316053       20.1765650486
 Zn        34.2852780608       20.0941153290       36.9172503360
 Zn        14.4704023598       28.7451311386       14.3007565232
 Zn        31.7535030617       17.3885203439       14.4749691903
 Zn        17.4685498815       31.5251329883       14.4735003970
 Zn        28.7535252630       17.5639163442       34.3753574930
 Zn        40.0897945422       23.2587123919       17.4784716906
 Zn        26.0518135539       14.3819656511       11.9188534312
 Zn        14.7742369199       28.9179012940       36.8280565215
 Zn        28.5079696239       20.5023080365        8.9868196408
 Zn        31.2739212094       23.5077897656        9.0645609049
 Zn        33.8007066623       26.7861581722        8.7595318490
 Zn        14.3058173835       12.4113192184       32.0129466961
 Zn        40.1844910904       25.3196285270       34.7091356780
 Zn        17.3827892788       14.5336239200       31.7573056121
 Zn        20.1808358874       17.3885227500       31.6844697747
 Zn        23.0398957070       20.2509104637       31.5999416950
 Zn        25.8952847225       23.1173963493       31.5917735069
 Zn        28.8088789715       25.9709715977       31.5944539308
 Zn        31.6122803812       28.8315327705       31.6069519071
 Zn        34.4606101409       31.7640296037       31.6125307814
 Zn        23.7604762720        8.7368761414       34.7092234322
 Zn        28.9125338159       36.9725287450       14.7151501740
 Zn        31.4426960840       20.2476974736       34.3777219242
 Zn        12.0851882194       20.0751932451       14.7777675834
 Zn        15.1091809117       20.8159010490       39.7695901995
 Zn        28.9116695334       14.7807628010       36.8375368362
 Zn        14.5473558677       14.5425424510       23.2727814791
 Zn        20.1835189447       14.4730801398       34.6379985597
 Zn        33.7304908639        8.7566714952       26.7799713968
 Zn        23.0305552501       17.3913554528       34.4523003672
 Zn        22.2929375544       15.2662729190        8.8228880367
 Zn        17.4052485773       17.4004961654       23.1207567709
 Zn        14.5492851544       23.1867448668       14.6080575308
 Zn        25.8990441142       20.2655230949       34.3735133736
 Zn        15.1852941459        9.1618962520       28.2625026822
 Zn        17.4038520784       11.6897336375       28.8129274553
 Zn        28.7435234859       23.1086493271       34.3757380255
 Zn        39.7745009797       15.5114267973       26.6961134029
 Zn        17.5645278668       23.3614010027       40.0203565651
 Zn        20.2550331021       26.0474334333       39.9349691878
 Zn        31.6079991175       25.9728645723       34.4502574778
 Zn        34.4545590567       28.9119328180       34.4490640496
 Zn        36.5859379891       32.0101515381       34.6304491527
 Zn        20.2548538075       20.2506946536       23.1199194539
 Zn        17.4564624085       34.2128315945       34.2106689413
 Zn        20.0891867412       36.8442801718       34.2185491601
 Zn        22.3044005383       39.8368354110       33.4107894869
 Zn        34.4523622021       23.2600362185       34.4518919583
 Zn        17.3956606210       25.9594358469       14.5519531247
 Zn        20.2584709034       28.7346515237       14.5530208538
 Zn        23.1011880168       23.0379930442       23.1024179053
 Zn        37.0826488526       26.0460745363       34.6130703227
 Zn        15.5158904357       22.2815388054        9.2282403535
 Zn        17.4895714720       25.6602372728        8.9048605585
 Zn        20.6662693072       28.3274276768        9.3119604140
 Zn        23.2756458676       31.5163793177        8.9078594088
 Zn        26.6948558357       33.4851525312        9.2270305325
 Zn        20.1837541480       14.5520042258       28.8282300028
 Zn        23.0323237667       17.3982165422       28.8234922493
 Zn        25.8858794316       20.2542972500       28.7486553070
 Zn        28.7461342342       23.1210448151       28.7458396933
 Zn        39.7629243653       28.2620409602       33.8179011067
 Zn        14.7787526300       20.0165141557       12.1720815949
 Zn        17.4730614020       23.0153433780       11.8390125486
 Zn        20.2707689659       25.8115042494       11.8380977020
 Zn        23.1701346579       28.7274388186       11.8366210049
 Zn        25.9692445665       31.5284610601       11.8340288965
 Zn        28.9152648348       34.2253995717       12.1625369142
 Zn        25.8982656860       25.8997433789       23.0975471664
 Zn        31.5999204750       25.9703899204       28.7562560428
 Zn        28.7435486170       28.7451038866       23.1127939300
 Zn        31.2868609407        8.9962706588       23.4397410076
 Zn        11.9243915616       20.1633016233       20.1672628327
 Zn        14.8582113690       28.3423017582        9.0775041414
 Zn        14.7841221019       17.4008498339       14.8538846781
 Zn        17.5609701721       20.2381848170       14.6259728861
 Zn        20.2641118767       23.0396791396       14.6323508293
 Zn        23.1043678458       25.8878020892       14.6171685993
 Zn        25.9002028449       28.7391522448       14.6358027462
 Zn        28.7515653321       31.4397344258       14.6279915970
 Zn        31.5354790676       34.2150773829       14.7932153266
 Zn        31.5993189284       31.5975864026       23.1122809405
 Zn        20.6428201906       34.1429222096        9.0755203139
 Zn        14.7833647808       14.7720252159       17.4785447680
 Zn        17.5497365924       17.4868198422       17.5508371966
 Zn        20.3299536687       20.2612346668       17.4770004085