    1116
 i =       95, E =    -43122.8884040421
 Cl         7.4224367358       12.8905170144       18.0272852003
 Cl         6.7425417664       13.3526733527       23.1985139040
 Cl         7.4427977111       15.5150293194       15.5129146820
 Cl         7.3413523580       15.7311757853       20.8485068858
 Cl         6.7138429589       16.2193034075       25.9994246655
 Cl         7.4199860696       18.0230331874       12.8866864968
 Cl         7.4159455061       18.3066117660       18.2995008349
 Cl         7.3464318546       18.5716469105       23.6348739133
 Cl         6.7170769274       19.0005051567       28.8570690235
 Cl         6.8633686339       20.3699533393       10.4662361994
 Cl         7.3422258284       20.8516519742       15.7273903955
 Cl         7.4049375990       21.1079943186       21.0861745582
 Cl         7.3397685234       21.3588844044       26.4749818952
 Cl         6.7400006789       21.8167414830       31.7152464168
 Cl         6.7434187337       23.2022588944       13.3499365753
 Cl         7.3416579250       23.6353303271       18.5257775895
 Cl         7.4171853037       23.9260944960       23.9242795147
 Cl         7.3499073857       24.1938520652       29.3374832666
 Cl         6.8619079799       24.6322159781       34.5950622319
 Cl         6.7195927839       26.0111403540       16.1606351530
 Cl         7.3398429203       26.4735473650       21.3574135190
 Cl         7.4058267833       26.7350021583       26.7534476883
 Cl         7.4177124209       26.9902927072       32.1690197562
 Cl         6.7206864510       28.8522421908       18.9928036542
 Cl         7.3604243388       29.3043645647       24.1906401303
 Cl         7.4684220244       29.5341159841       29.5314443612
 Cl         6.7308951834       31.7029291792       21.8299976092
 Cl         7.4161444429       32.1763371047       26.9905176434
 Cl         6.8654066898       34.5998088350       24.6283865421
 Ga         8.5952410534       11.1779744012       19.3940635661
 Ga         8.8275113576       13.9837289483       16.6542283976
 Ga         8.5219011427       14.0645884007       22.3580331182
 Ga         8.8273537002       16.6523931309       13.9834501565
 Ga         8.7531785077       16.8810159292       19.6035759719
 Ga         8.5194361837       16.9462575701       25.2340640718
 Ga         8.5924120632       19.3864052443       11.1763783454
 Ga         8.7524034647       19.6006811079       16.8774575142
 Ga         8.7556107914       19.7620226272       22.4298294512
 Ga         8.5177659527       19.7662398899       28.1238671919
 Ga         8.5185711251       22.3542113235       14.0637177850
 Ga         8.7533549481       22.4339288967       19.7061381279
 Ga         8.7519216057       22.5791659181       25.3080448284
 Ga         8.5197299203       22.6529356901       31.0067150235
 Ga         8.5224548905       25.2414393552       16.8856145189
 Ga         8.7506234970       25.3030230618       22.5746643927
 Ga         8.7521163768       25.4555652050       28.1887687022
 Ga         8.5912578703       25.6152957464       33.8922725936
 Ga         8.5204061205       28.1183729817       19.7619853204
 Ga         8.7483868027       28.1317984391       25.4559204520
 Ga         8.8262031361       28.3597927465       31.0854391600
 Ga         8.5194022567       31.0027570691       22.6538805137
 Ga         8.8236961248       31.0851482116       28.3586561746
 Ga         8.5908482627       33.8926051882       25.6152745387
 Cl        10.3961479765        6.8660281624       20.3534169670
 As         9.7069200377        9.7574599246       17.8846548559
 Cl         6.8633556627       10.4713200519       20.3738069020
 As         9.8053258781       12.4836002965       15.1904621614
 As         9.8485827518       12.6606091816       20.9497915815
 Cl         9.8520863951       12.9226777275       26.3964173316
 As         9.8060945192       15.1894760178       12.4832984084
 As         9.9995111361       15.4653068599       18.2025078125
 As         9.8410822615       15.5143006499       23.8162259452
 Cl         9.8275700070       15.7804211056       29.2366388519
 As         9.7079501751       17.8816672835        9.7554732858
 As        10.0001441157       18.2012201830       15.4620278102
 As        10.0202829572       18.3203872087       21.0383339564
 As         9.8396222101       18.3541209230       26.6824159438
 Cl         9.8614761132       18.6547656664       32.1006092300
 Cl        10.3933422869       20.3534786885        6.8663901885
 As         9.8343121200       20.9374725692       12.6646646414
 As        10.0292422995       21.0311159993       18.3042575400
 As        10.0263526673       21.1511972006       23.8869679637
 As         9.8237775326       21.2128905664       29.5308200418
 Cl         9.9806978140       21.5078726228       35.0103790179
 Cl         9.9175238375       23.5417505373        9.9969917429
 As         9.8505364886       23.8078740880       15.4962708001
 As        10.0110018065       23.8670655993       21.1425682167
 As         9.9999918236       23.9854432382       26.7434748806
 As         9.8388559633       24.0966687782       32.3764023244
 Cl        10.4030079956       24.6328603791       38.1378319840
 Cl         9.8539200595       26.4017799961       12.9246656809
 As         9.8401622286       26.6616557863       18.3461504011
 As        10.0080966897       26.7271978572       23.9772792881
 As        10.0126651957       26.8551674409       29.5782857913
 As         9.7008841708       27.1315212469       35.2988747073
 Cl         9.8289044884       29.2359380268       15.7821254450
 As         9.8232574217       29.5279842795       21.2105132896
 As         9.9861932609       29.5829363891       26.8269346227
 As         9.8221465917       29.8351388845       32.5567232813
 Cl         9.8631840103       32.1012525723       18.6541140122
 As         9.8378218645       32.3782388390       24.0934035500
 As         9.8224424795       32.5552245134       29.8319911484
 Cl        10.4083937910       38.1377793082       24.6296202396
 As         9.7018966918       35.2991778016       27.1307903547
 Ga        11.1011362063        8.6021426751       19.3857622915
 Ga        11.1908425554       11.2506374260       16.7295635040
 Ga        11.2451228399       11.2572924688       22.4207845031
 Ga        11.1024724022       14.1477871167       14.1487271324
 Ga        11.3291138554       14.0591953553       19.6844431130
 Ga        11.2461912929       14.0663117620       25.3002205698
 Ga        11.1903774808       16.7282257771       11.2507801353
 Ga        11.4110818287       16.8746291645       16.8752830799
 Ga        11.3329954535       16.8727558788       22.5117361643
 Ga        11.2489821042       16.8817997827       28.1309475514
 Ga        11.1011400441       19.3851489931        8.6016481007
 Ga        11.3302986413       19.6829486466       14.0589024522
 Ga        11.4745175837       19.6847569927       19.6871542269
 Ga        11.3344671104       19.6872350251       25.3746923762
 Ga        11.2463072143       19.7566210503       30.9426057009
 Ga        11.1891229181       22.4188290640       11.2568241496
 Ga        11.3354380282       22.5087102796       16.8689533504
 Ga        11.4675316970       22.5035485159       22.5038676075
 Ga        11.3283906567       22.5047434211       28.1908993561
 Ga        11.2480622437       22.6452403066       33.7495348240
 Ga        11.2488742088       25.3008863417       14.0634058637
 Ga        11.3302411524       25.3245960940       19.6856043974
 Ga        11.4102036413       25.3149061086       25.3187112706
 Ga        11.3257235519       25.3798302535       31.0011410704
 Ga        11.1070754106       25.6145305371       36.4082270260
 Ga        11.2473885468       28.1274647058       16.8854045504
 Ga        11.3291275319       28.1885994676       22.5020571420
 Ga        11.4078108221       28.1840336779       28.1338111232
 Ga        11.1850070260       28.2853458425       33.8139390130
 Ga        11.2461226509       30.9416566160       19.7569593527
 Ga        11.3241926609       31.0016248881       25.3750250535
 Ga        11.1041216431       30.8612995461       30.8614328908
 Ga        11.2483086439       33.7496895704       22.6449049080
 Ga        11.1853787449       33.8144154597       28.2855760638
 Ga        11.1078046759       36.4085529686       25.6146889421
 Cl        12.8241133788        7.4320725371       18.0144442009
 Cl        13.2848844551        6.7383035739       23.1865287497
 As        12.4504341181        9.8783802778       15.1861711695
 As        12.6035986806        9.8472017389       20.9416882034
 Cl        12.8506839816        9.8565837547       26.3934744319
 Cl        12.8157716377       12.8356561911       12.8434395363
 As        12.6323945042       12.6734924061       18.2189728829
 As        12.6344176197       12.6628625089       23.8585348089
 Cl        12.7433424663       12.8158726421       29.2872164435
 As        12.4476177239       15.1825152991        9.8800386134
 As        12.7113750294       15.4610020467       15.4622824964
 As        12.7058274298       15.4951957603       21.0836169797
 As        12.6285692621       15.4890060466       26.7037426352
 Cl        12.7410838295       15.7088089372       32.2276470327
 Cl        12.8151704225       18.0048694936        7.4278834552
 As        12.6335414158       18.2183069058       12.6707563951
 As        12.7826741087       18.2800638864       18.2803926709
 As        12.7024340820       18.3050362534       23.9199121535
 As        12.6250338762       18.3168454157       29.5473674061
 Cl        12.8477211565       18.6502620326       35.1351197350
 As        12.5887044713       20.9490988140        9.8514825878
 As        12.7074981903       21.0807429433       15.4927948669
 As        12.7932493250       21.0983959290       21.0996303890
 As        12.7075466731       21.1241675193       26.7437547050
 As        12.6285384864       21.1887436639       32.3471603769
 Cl        13.2660464920       21.8089730796       38.2514705001
 Cl        13.2939914497       23.1791883440        6.7311816244
 As        12.6160405296       23.8385803231       12.6613136317
 As        12.7103045339       23.9064208746       18.2974852203
 As        12.7757997106       23.9173352367       23.9165829984
 As        12.6841932432       23.9484745291       29.5545266638
 As        12.6209442336       24.0929439036       35.1597370212
 Cl        16.1581055945       25.9915413268        6.7099742244
 As        12.6278659854       26.7022278089       15.4884804495
 As        12.6975562107       26.7305751880       21.1158277930
 As        12.7264908577       26.7287315110       26.7238317546
 As        12.6334823188       26.8327592479       32.3650602457
 Cl        12.8321642932       26.9857705691       37.5817407915
 Cl        12.7538198576       29.2967597599       12.8225198000
 As        12.6256229582       29.5466875581       18.3164325167
 As        12.6831684751       29.5526436746       23.9473810428
 As        12.7194772343       29.5602375008       29.5557213114
 As        12.4466859605       29.8306814682       35.1763850381
 Cl        12.7552255926       32.2370157568       15.7128132370
 As        12.6275097741       32.3459450836       21.1883177976
 As        12.6320783201       32.3634344949       26.8319787840
 Cl        12.8272955586       32.1731294595       32.1762313862
 Cl        12.8545689098       35.1392319631       18.6519671899
 As        12.6235086112       35.1590921395       24.0945604114
 As        12.4445111481       35.1762466331       29.8342874859
 Cl        13.2879079282       38.2588944714       21.8142848487
 Cl        12.8348230208       37.5804059596       26.9865149979
 Ga        13.9111775425        8.8359916010       16.6457342570
 Ga        13.9944374266        8.5232501356       22.3585965114
 Ga        14.1413569751       11.1628518419       14.1488428325
 Ga        13.9888555371       11.3366766037       19.6805277712
 Ga        13.9989513598       11.2535309767       25.3071430187
 Ga        14.1357879150       14.1442184412       11.1660297551
 Ga        14.0596688961       14.0679536633       16.8857902073
 Ga        14.0588795672       14.0680561687       22.5143002187
 Ga        13.9974124476       14.0579757560       28.1343637532
 Ga        13.9063569669       16.6405580431        8.8340809416
 Ga        14.0571024988       16.8856400836       14.0705304464
 Ga        14.1376998379       16.8748660870       19.6997524048
 Ga        14.0624196122       16.8754274185       25.3755716362
 Ga        13.9922003790       16.8770123168       31.0027294379
 Ga        13.9854540460       19.6836793831       11.3342209976
 Ga        14.1375281295       19.6979455742       16.8757428921
 Ga        14.1397306157       19.6790203120       22.5193802569
 Ga        14.0602527609       19.6806965590       28.1911527390
 Ga        13.9965803608       19.7559418991       33.7504611475
 Ga        13.9905605803       22.3524724644        8.5215033710
 Ga        14.0572108222       22.5112802141       14.0671407132
 Ga        14.1416885581       22.5125510918       19.6804369597
 Ga        14.1364966500       22.4940344931       25.3238000082
 Ga        14.0593269148       22.4997423545       30.9387229794
 Ga        13.9917291733       22.6485323393       36.4793876686
 Ga        13.9982692631       25.2512413132       11.2525597336
 Ga        14.0620709128       25.3745604191       16.8736064479
 Ga        14.1355868832       25.3255656643       22.4934479294
 Ga        14.0747369289       25.3084951849       28.1263499257
 Ga        13.9950564554       25.3775893002       33.6733663833
 Ga        13.9996257536       28.1296415653       14.0585902670
 Ga        14.0555360391       28.1874405470       19.6827849450
 Ga        14.0767207411       28.1260290933       25.3072697544
 Ga        14.0621113970       28.1250761123       30.9370337553
 Ga        13.9168329748       28.3562650065       36.1736649137
 Ga        13.9960511502       31.0019207494       16.8798320358
 Ga        14.0573655769       30.9395897072       22.5022981153
 Ga        14.0628917184       30.9373752618       28.1245075939
 Ga        14.1404514588       30.8582937906       33.8932424415
 Ga        13.9961044047       33.7469740200       19.7547329721
 Ga        13.9971094328       33.6727201618       25.3798706163
 Ga        14.1389585097       33.8935506957       30.8614905077
 Ga        13.9940117257       36.4795753212       22.6520456358
 Ga        13.9152190439       36.1732953427       28.3597250420
 Cl        15.4613653169        7.4655985344       15.5031252472
 Cl        15.6808756163        7.3821572360       20.8494291558
 Cl        16.1664644246        6.7104548294       25.9906538243
 As        15.1841377999        9.8488769996       12.4900167862
 As        15.4027574280       10.0284757914       18.1851941124
 As        15.4446857500        9.8449563122       23.8193641116
 Cl        15.7733083346        9.8124829555       29.2171706508
 As        15.1457200120       12.4470387407        9.8762101025
 As        15.4617154423       12.7368494297       15.4702004016
 As        15.4534753947       12.7136196082       21.0674083369
 As        15.4287472646       12.6335711553       26.7236199384
 Cl        15.6631457033       12.8057893566       32.2466495077
 Cl        15.4385612811       15.4660205215        7.4685289674
 As        15.4469633117       15.4576757996       12.7447186006
 As        15.4814683924       15.4889886177       18.2732424098
 As        15.4539116208       15.4799792084       23.9348937283
 As        15.3993525948       15.4565744020       29.5767116066
 Cl        18.9936260660       16.1691012892       38.2834309471
 As        15.3884253202       18.1839661683       10.0112017417
 As        15.4803672848       18.2725431002       15.4901014884
 As        15.5116331384       18.2815317909       21.1139231779
 As        15.4646360918       18.2856415733       26.7650333388
 As        15.4258624751       18.3050936761       32.3888474734
 Cl        16.1508160491       19.0159141980       38.2904683363
 Cl        15.6693754003       20.8145118920        7.3527406858
 As        15.4532422085       21.0648203781       12.7129589055
 As        15.5142462195       21.1108679031       18.2805550341
 As        15.5119266961       21.0891890711       23.9236026660
 As        15.4730777067       21.1080313784       29.5384012669
 As        15.4497806929       21.1993490077       35.1655428904
 As        15.4509845235       23.8036926951        9.8358899672
 As        15.4530457254       23.9340327536       15.4784732745
 As        15.5105330576       23.9204391269       21.0908834535
 As        15.4887195044       23.9143146488       26.7243328345
 As        15.4347976464       23.9481888392       32.3072582816
 Cl        15.6695697521       24.1521222227       37.6628524735
 As        15.4222464806       26.7098777623       12.6249201010
 As        15.4587355960       26.7541709214       18.2996955216
 As        15.4912520011       26.7248290572       23.9136742633
 As        15.4504753658       26.7329406483       29.4987611537
 As        15.4217605326       26.8248045661       35.0018895418
 Cl        15.7745674807       29.2278659015        9.8163039903
 As        15.4021524918       29.5530692012       15.4779585856
 As        15.4651439687       29.5295276162       21.1210446886
 As        15.4526612516       29.4993301934       26.7315438146
 As        15.4528330377       29.5428572642       32.2865311611
 Cl        15.4682623402       29.5256658400       37.5315280328
 Cl        15.6620334658       32.1995573790       12.8137201351
 As        15.4361667913       32.3797141216       18.3196889459
 As        15.4367120112       32.3050945571       23.9507436154
 As        15.4452705908       32.2769084465       29.5597887077
 As        15.1692379396       32.5505262087       35.1775106079
 Cl        15.7617866531       35.1692227654       15.7774961503
 As        15.4454193400       35.1483587198       21.2078196359
 As        15.4221465843       34.9838407219       26.8548295699
 As        15.1721722348       35.1711723296       32.5553625261
 Cl        16.1474716960       38.2277809999       18.9978119415
 Cl        15.6690305932       37.6458701320       24.1852134956
 Cl        15.4694546799       37.5302306503       29.5332781471
 Ga        16.6369922604        8.8312950666       13.9789825437
 Ga        16.8105349773        8.8148383457       19.6041578398
 Ga        16.8785279178        8.5258010925       25.2376652851
 Ga        16.7203634034       11.2405714367       11.2500066268
 Ga        16.8616990503       11.4167586764       16.8783037843
 Ga        16.8007266896       11.3382037414       22.5128204475
 Ga        16.8711739887       11.2517219393       28.1252873491
 Ga        16.5893505278       13.9141552385        8.8313454475
 Ga        16.8796175141       14.0698445955       14.0730562597
 Ga        16.8658121573       14.1387866789       19.6966647086
 Ga        16.8041146205       14.0625688963       25.3819385866
 Ga        16.8054330262       14.0587561409       30.9989572626
 Ga        16.8117840234       16.8702725831       11.4118556491
 Ga        16.8785208944       16.8815587586       16.8823228318
 Ga        16.8707669173       16.8809139798       22.5687905477
 Ga        16.8028667051       16.8124425348       28.1932693940
 Ga        16.8674237055       16.8799571644       33.7527042142
 Ga        16.8118673672       19.5461374466        8.7514801001
 Ga        16.8658691174       19.6961686300       14.1422092211
 Ga        16.8833637603       19.6916613348       19.6940005234
 Ga        16.8724392569       19.6821394966       25.3755401557
 Ga        16.8011314813       19.6248403003       30.9397489882
 Ga        16.8758783080       19.7648290996       36.4784949525
 Ga        16.7993005345       22.5037434932       11.3333524507
 Ga        16.8712949166       22.5667892586       16.8795942120
 Ga        16.8862912466       22.5010887935       22.5021519563
 Ga        16.8700239263       22.4963027730       28.1232921138
 Ga        16.7980804961       22.4974260578       33.6657594378
 Ga        16.8756505649       25.2358496478        8.5218945573
 Ga        16.8019955681       25.3851004173       14.0643614217
 Ga        16.8731573108       25.3681764227       19.6853789852
 Ga        16.8816094592       25.3122844326       25.3127334803
 Ga        16.8081753273       25.3086568435       30.8624594679
 Ga        16.8086666223       25.3985607629       36.2475506736
 Ga        16.8669856836       28.1247886232       11.2515769680
 Ga        16.8036120742       28.1923466073       16.8673392096
 Ga        16.8732937331       28.1232984468       22.4996695132
 Ga        16.8760594884       28.1185823285       28.1188750153
 Ga        16.8627551503       28.1283488996       33.5888410033
 Ga        16.8050354738       30.9415929413       14.0608688051
 Ga        16.8023213966       30.9424421814       19.6801272743
 Ga        16.8131779437       30.8635177902       25.3102285186
 Ga        16.8760852495       30.9342212172       30.9394085085
 Ga        16.6395021764       31.0760409275       36.1731296891
 Ga        16.8676927298       33.7451630493       16.8783012595
 Ga        16.8015333386       33.6651818971       22.5046153102
 Ga        16.8671858177       33.5871638371       28.1831531364
 Ga        16.7180423622       33.8058423806       33.8131649647
 Ga        16.8748366365       36.4207490179       19.7623251062
 Ga        16.8098418296       36.2466872928       25.4559940366
 Ga        16.6416776330       36.1745645942       31.0849332430
 Cl        18.0048984477        7.4232810375       12.8890346710
 Cl        18.2470058807        7.4492061894       18.3070995506
 Cl        18.5283962130        7.3835280378       23.6243816114
 Cl        19.0038016581        6.7128908185       28.8329472891
 As        17.8711350247        9.7289676816        9.7690941452
 As        18.1648343661       10.0025571442       15.4637869386
 As        18.2685092229       10.0642790822       21.0285489131
 As        18.3349895500        9.8448623231       26.6606799684
 Cl        18.6065725390        9.8586597123       32.1009940434
 Cl        17.9707859761       12.8262486279        7.4373697922
 As        18.1905064908       12.6467511526       12.6737407159
 As        18.2714382869       12.7864313222       18.2790957360
 As        18.2434296440       12.7081443708       23.9157126420
 As        18.2538132081       12.6480937977       29.5612078526
 Cl        18.6091749694       12.9224731282       35.1538966637
 As        18.1271667745       15.4170338622       10.0123627554
 As        18.2714573667       15.4888503806       15.4902970274
 As        18.2584548333       15.5252480665       21.1063968232
 As        18.2424224098       15.4689612738       26.7476689573
 As        18.2758921487       15.4764013252       32.3631938376
 Cl        18.2411999948       18.2506359082        7.4228635179
 As        18.2431915769       18.2608565656       12.7860852780
 As        18.2783410526       18.2813935864       18.3007618084
 As        18.2683267801       18.3090225607       23.9279841141
 As        18.2382298260       18.2720426918       29.5281606469
 As        18.3196792209       18.3372263221       35.1665424078
 As        18.2398979246       21.0120332717       10.0289775285
 As        18.2655587979       21.0988099548       15.5370753182
 As        18.2880533575       21.0967603022       21.0966422255
 As        18.2747752300       21.1114358771       26.7197643645
 As        18.2296639937       21.0997671950       32.2886560803
 Cl        18.5249393726       21.3693795539       37.6152442360
 Cl        18.5241330492       23.6309220935        7.3852755156
 As        18.2326361009       23.9030072880       12.7124028670
 As        18.2686822920       23.9277277370       18.3073460316
 As        18.2856833404       23.9072088954       23.9070281818
 As        18.2528069983       23.9222703480       29.4923502609
 As        18.2483630679       23.9748087166       34.9625527924
 As        18.3221341301       26.6647252925        9.8345370735
 As        18.2372514470       26.7555512693       15.4791619949
 As        18.2746802270       26.7190193196       21.1115221419
 As        18.2832187893       26.7143108054       26.7133429819
 As        18.2437644677       26.7260026442       32.2014388383
 Cl        18.2501422154       26.6980736130       37.5776428652
 Cl        19.0004693435       28.8341801243        6.7130099638
 As        18.2676693157       29.5612741910       12.6329800882
 As        18.2387639053       29.5413161902       18.2967994866
 As        18.2655862433       29.5010945881       23.9159292399
 As        18.2652496866       29.5150106792       29.5154341532
 As        18.1564012453       29.5525469985       35.0085856445
 Cl        18.6234341892       32.1264228936        9.8327635800
 As        18.2693230618       32.3466682070       15.4672129977
 As        18.2510649585       32.2909159625       21.1192535170
 As        18.2375877371       32.2087268817       26.7399553207
 As        18.1781840775       32.3482456986       32.3707524699
 Cl        18.0142467565       32.1378666326       37.5911104510
 Cl        18.5971081857       35.1290533047       12.9018693559
 As        18.3309502130       35.1482244562       18.3259748945
 As        18.2415111453       34.9719464304       23.9921631924
 As        18.1737740524       35.0098482676       29.5824119825
 As        17.8841177934       35.2698380727       35.3065888943
 Cl        19.0017065637       38.2806970551       16.1546997264
 Cl        18.5201741549       37.5959983560       21.3588853414
 Cl        18.2503890556       37.5888858529       26.7267526417
 Cl        18.0106827710       37.5781870080       32.1785541354
 Ga        19.3814609373        8.5970913919       11.1763158331
 Ga        19.5413829279        8.7514931592       16.8823741102
 Ga        19.6953425237        8.8138075419       22.4255449403
 Ga        19.7604973690        8.5247226354       28.1170758970
 Ga        19.3774056565       11.1030117973        8.5999708707
 Ga        19.6289448081       11.3285869292       14.0585831462
 Ga        19.6816291754       11.4802821430       19.6840040625
 Ga        19.6677416181       11.3400608074       25.3258496696
 Ga        19.6913645929       11.2544821258       30.9433520535
 Ga        19.6169640273       14.0032012594       11.3289179954
 Ga        19.6924314628       14.1378192237       16.8741584937
 Ga        19.6158680608       14.1395544107       22.5167773679
 Ga        19.6149572780       14.0645435717       28.1917349733
 Ga        19.6958375898       14.0611407730       33.7465390099
 Ga        19.5313831117       16.8097153763        8.7543517350
 Ga        19.6895244796       16.8737818171       14.1390507612
 Ga        19.6871220331       16.8877325075       19.6950058504
 Ga        19.6204232331       16.8803208820       25.3281025325
 Ga        19.6191372337       16.8656921061       30.9376631907
 Ga        19.7606742450       16.8860987665       36.4768065132
 Ga        19.6189934833       19.6835875762       11.4779458969
 Ga        19.6859136544       19.6920043753       16.9395153237
 Ga        19.6864363924       19.6896882878       22.5039334309
 Ga        19.6237082138       19.6796386378       28.1211798767
 Ga        19.6174633541       19.6821940291       33.6649424894
 Ga        19.6909315440       22.4255904597        8.8174048119
 Ga        19.6183519044       22.5112871671       14.1418827715
 Ga        19.6852275216       22.5054240221       19.6919729836
 Ga        19.6885002648       22.5003226916       25.3102479797
 Ga        19.6163427678       22.4915748230       30.8609980518
 Ga        19.6966951839       22.5741735377       36.1866811684
 Ga        19.6198143362       25.3192815876       11.3350217465
 Ga        19.6200749369       25.3275093512       16.8783615018
 Ga        19.6880684885       25.3104466318       22.5011126287
 Ga        19.6859894745       25.3110522851       28.1119397993
 Ga        19.6271967394       25.3171774211       33.5212827817
 Ga        19.7582357819       28.1184280634        8.5238445303
 Ga        19.6134045738       28.1933463271       14.0655111086
 Ga        19.6225427293       28.1202006685       19.6807725998
 Ga        19.6853219537       28.1137975803       25.3108600178
 Ga        19.6897085338       28.1266629262       30.8632388176
 Ga        19.5422288962       28.1238055382       36.2492073832
 Ga        19.6939471503       30.9961303225       11.2553918710
 Ga        19.6166890901       30.9389082281       16.8687107608
 Ga        19.6648871914       30.8607673851       22.4944077025
 Ga        19.6895203651       30.8660304688       28.1289395202
 Ga        19.6206915928       30.9428246619       33.6698802703
 Ga        19.6904388409       33.7425260188       14.0599017723
 Ga        19.6238423765       33.6601800004       19.6797998641
 Ga        19.6212785979       33.5221433322       25.3203044968
 Ga        19.6250785901       33.6690718559       31.0023500426
 Ga        19.3850783763       33.8285381832       36.4066287269
 Ga        19.7629023630       36.4777360024       16.8841995377