    1259
 i =       85, E =    -30828.0592448861
 Hg        33.5143816668       19.6731427652       42.8599576177
 Hg        36.8339237804       19.7239470289       13.4401613561
 Hg        33.4054712703       42.6446624293       19.7916177703
 Hg         7.5086276202       29.1649162380       13.7850664482
 Hg        13.0527746128       36.8808170022       14.4994102575
 Hg        20.5542763557       42.2286870512       13.7570794523
 Hg        42.7771177992       27.4006651819       14.4663867821
 Hg         7.0986149673       25.9535185938       17.0308816424
 Hg        10.0482587286       29.7845677931       16.7698740401
 Hg        13.2972535582       33.2530814406       16.4582943156
 Hg        16.6054913160       36.4380039915       16.5082778176
 Hg        19.9812862696       39.7187763038       16.7562989909
 Hg        23.7709284902       42.6745400657       16.9852291077
 Hg        25.9738652294        6.2356605740       12.4174175654
 Hg        42.6591400929       13.7964885760       20.5031088924
 Hg        23.2889045368       33.1068393858       19.9712124908
 Hg         6.9190934216       22.8920483123       20.0204178344
 Hg        10.1460759055       26.3768373994       20.1205649267
 Hg        13.3717595621       29.7818894036       20.0027325572
 Hg        16.6315851928       33.1450462671       19.9441477355
 Hg        20.0190767358       36.4170260197       20.0292553652
 Hg        23.3734854540       39.6547447623       20.0746199598
 Hg        26.8430841393       42.8934508187       19.9652743960
 Hg        36.8483785502       10.0416875533       23.2947100772
 Hg         7.1628219104       33.3058144303       30.1775453149
 Hg        35.6852986574       22.3284331908       43.0081107948
 Hg        33.1906313734       13.3971727007       10.4331719711
 Hg        10.3956438682       13.2823112767       19.8284979660
 Hg        10.3883924564       36.3039640000       30.2481492756
 Hg         6.9245275541       19.7281624622       23.1834193833
 Hg        10.1017303387       23.0820547250       23.3673536573
 Hg        13.4120737188       26.4567117886       23.3685863776
 Hg        16.6993495386       29.8250613508       23.3126328055
 Hg        19.9738765580       33.0986271146       23.3102892772
 Hg        23.3482366237       36.3958491854       23.3710854394
 Hg        26.6692709873       39.7164126550       23.3184060868
 Hg        29.9934435454       42.9151899624       23.1125632470
 Hg        29.7988140587       13.3830758543        7.7560206985
 Hg        13.4799780070       39.4196864182       30.2327892985
 Hg         7.1197261410       16.7002263234       26.2453299748
 Hg        10.0849012492       19.7753055558       26.7085561474
 Hg        13.4222486972       23.1680285177       26.6483971625
 Hg        16.7263730769       26.4556701708       26.6765019389
 Hg        20.0175008884       29.7990490277       26.6379583914
 Hg        23.3540765747       33.0976618212       26.6709084751
 Hg        26.6505178104       36.4287570666       26.6626390757
 Hg        29.9783294298       39.7259650849       26.6139567396
 Hg        33.0677166221       42.9740436121       26.2130723913
 Hg        40.4380950357       19.5035897006       11.2762338181
 Hg        16.4745096233       42.6305036224       30.1299616718
 Hg         7.7172947704       13.4270771697       29.8061343127
 Hg         9.9925782182       16.3856138197       30.2671608361
 Hg        13.4106489501       19.8579551617       29.9850728435
 Hg        16.7191047941       23.1186239573       30.0399436495
 Hg        20.0290982386       26.4408150086       30.0073843583
 Hg        23.3860064213       29.8037637769       30.0101048668
 Hg        26.6915366854       33.1274194285       30.0404622655
 Hg        29.9541316154       36.4465346829       29.9658547397
 Hg        33.2716658314       39.8356603025       30.1273997455
 Hg        35.9089772662       42.5611047276       29.4879959123
 Hg        13.3523346408       16.6705312903       19.9316661202
 Hg        16.7510182262       19.8412139266       20.0776902444
 Hg        10.4048690497       13.4321470821       33.1997879010
 Hg        13.3239456049       16.4718579145       33.5009320223
 Hg        16.7162343490       19.7868608765       33.3961423211
 Hg        20.0157702843       23.1509654094       33.3216323653
 Hg        23.3767495714       26.4825807441       33.3234509596
 Hg        26.7216289415       29.8546973105       33.3267320297
 Hg        30.1033409548       33.2285424724       33.3666025478
 Hg        33.5592509565       36.7760972284       33.5491783578
 Hg        36.2966372125       39.9114847101       32.9678305570
 Hg        13.0538546801       26.5552683890       10.1151163897
 Hg        20.0118281424       23.1725642167       20.0236006616
 Hg        13.5995990167       13.6678483256       36.2977990207
 Hg        16.5758477763       16.3793665331       36.8546566906
 Hg        20.0841056790       19.8700083185       36.6279351103
 Hg        23.3737148110       23.1675338192       36.6357761782
 Hg        26.6709392926       26.4565372738       36.6194959895
 Hg        30.0016049992       29.8261743816       36.6422546476
 Hg        33.4785748662       33.3660594540       36.7050081725
 Hg        37.1058198567       35.3218966733       36.9404650011
 Hg        16.7299070680       29.8923523802        9.9822692853
 Hg        17.5350861469        6.7124577870       32.5208050991
 Hg        33.2497929280       19.8020466035       10.0884664408
 Hg        23.3263868688       26.4807552726       20.0173905919
 Hg        17.1928081551       13.4078180507       39.9796748067
 Hg        19.9017785625       16.5284572386       40.0312264742
 Hg        23.4003469928       19.8185818092       39.9281538717
 Hg        26.7014790557       23.1348368447       39.9407855998
 Hg        30.0176644454       26.4702139936       39.9504009025
 Hg        33.3517630013       29.9529052305       40.0345441412
 Hg        36.3540849009       32.6206998809       39.5371313700
 Hg        19.8671138280       33.0523398471        9.9855333075
 Hg         7.1820466603       19.5909308014       16.5629046088
 Hg         7.0297583601       14.1120138245       22.5920781249
 Hg        10.1816363605       16.5067714809       23.1900151016
 Hg        23.2108623376       36.7185142255       10.1056130480
 Hg        13.4610881930       19.8255259590       23.3960144871
 Hg        26.6283644292       29.7982256467       20.0207660658
 Hg        29.9416905738       33.0619439590       20.0589074443
 Hg        20.4641128757       13.8024588261       42.6730089905
 Hg        23.7910851119       16.6656284000       43.1498075917
 Hg        26.8849197397       19.7763533471       43.1273114296
 Hg        30.0487313858       22.9386754124       43.1220203259
 Hg        33.1006662507       25.9790672829       42.9421474265
 Hg        36.3645785096       29.4404633963       42.3440341848
 Hg        35.7905425308        6.8758603378       20.7070289276
 Hg        10.1437094263       22.9956164812       16.6925155527
 Hg        13.3413307618       26.4694217811       16.6972248939
 Hg        16.6422724989       29.8825992720       16.5988196459
 Hg        37.6724669172        6.2488570733       24.0973993159
 Hg        30.0501646946       39.3735434172       19.9391480335
 Hg        19.9378905635        9.8185052197       33.4081904289
 Hg        19.9096840592       16.2311334300        7.1950732764
 Hg        23.1767656126       19.7056671638        6.9302325603
 Hg        26.5112998136       23.2554107589        6.9966574696
 Hg        30.0266749016       26.6495431341        6.9209384392
 Hg        33.4999665376       29.9269095525        7.1806069979
 Hg        33.3854266107        9.8038863616       19.9747296066
 Hg        16.7203462608       23.1610299590       23.3496170164
 Hg        33.0948578376       36.4715915110       19.9200660251
 Hg        20.0171759327       26.4802578186       23.3366203035
 Hg        23.3411264632       13.1205634062       33.3360949719
 Hg        19.8127631379       13.2609613824       10.4195984645
 Hg        23.1798375910       16.4880778934       10.2019381163
 Hg        26.6989353258       19.7529327062       10.0973635632
 Hg        29.9277464419       23.1818533305       10.1579294849
 Hg        33.3274272953       26.5864676265       10.1537316295
 Hg        36.4947712793       30.0295936070       10.4356922153
 Hg        36.8099930896       13.1464616536       19.9765624371
 Hg        23.3318509679       29.7994049186       23.3366687364
 Hg        26.6439495323       33.1093925505       23.3445152503
 Hg        26.6720355032       16.4308081528       33.3773401500
 Hg        19.7713843136       10.1854937822       13.5323699775
 Hg        23.5399691163       13.0499810765       13.3368758479
 Hg        26.6694970602       16.5006728723       13.3606455049
 Hg        29.9748476315       19.8375397080       13.4279686860
 Hg        33.2966140484       23.1433948006       13.3816835824
 Hg        36.7519822650       26.3254678345       13.3679701544
 Hg        39.5636798364       30.0846106364       13.5455563193
 Hg        29.9828474963       36.3784086361       23.3637126708
 Hg        33.3234491528       39.7429426060       23.2807049183
 Hg        35.5377652697       42.5860908636       22.3944727890
 Hg        33.0080700950       18.8354454020        6.2756663118
 Hg        12.3788165326        6.2533052810       25.9967795537
 Hg        19.8357205087        6.9569488092       16.5540507906
 Hg        23.1824100775        9.9438994820       16.7551687664
 Hg        26.6743812132       13.1135040275       16.7331877813
 Hg        30.0592658996       16.4266849397       16.6940666457
 Hg        33.3816015599       19.7677174322       16.7332870942
 Hg        36.6790058715       23.1343093500       16.6994214535
 Hg        39.9322470726       26.5338560965       16.6913533198
 Hg        42.8477571943       30.0041678016       16.5986326911
 Hg        29.9522731393       19.8513561555       33.2803366035
 Hg        36.2397912658       20.3945065818        7.5645442530
 Hg        37.9638484648       23.8904127434        6.7719975362
 Hg        37.4481852872       25.9420180028       43.5499928244
 Hg        30.2589361117       16.3612267913       10.0102282553
 Hg         6.4572278254       37.2269867701       23.8954727726
 Hg        23.1239926728        6.7114230987       20.0328138783
 Hg        26.6560542532        9.8705108302       20.0563661340
 Hg        30.0288673748       13.1410677219       20.0350678168
 Hg        33.3933254124       16.4367283390       19.9643976686
 Hg        36.6101264428       19.8597829277       20.1013021452
 Hg        39.9036381655       23.1886060729       20.0371729093
 Hg        43.1036616411       26.6767198839       20.0134596176
 Hg        12.5595997902       43.3337129262       23.8524902677
 Hg        19.9391879388       33.1068864490       16.5956541974
 Hg        36.4673170984       39.3650689155       19.7258637029
 Hg        23.3072231936       36.4419454424       16.6911393206
 Hg        26.7735290559       39.6503774099       16.6704554031
 Hg        26.5603017128        6.7315870748       23.4846443257
 Hg        29.9935151479        9.8649247923       23.3959650639
 Hg        33.3211071160       13.1113383639       23.3650545644
 Hg        36.6827696335       16.4567616727       23.3535254675
 Hg        39.9095782530       19.8195795343       23.4303371769
 Hg        43.0176555633       23.2946293166       23.5229913475
 Hg        32.5035780959        6.6935242302       17.5814902956
 Hg        30.1171578822       42.6272838081       16.4973674530
 Hg         6.7453415141       23.9216716746       37.9724606477
 Hg        19.8739807557       33.3099208743       42.8582903595
 Hg        33.3487016038       23.1201647303       33.3642883359
 Hg        36.7997730661       23.1390213354       10.5257876574
 Hg        30.0202266458        6.7177876981       26.9247112061
 Hg        33.3042984582        9.9557619293       26.8649263972
 Hg        36.7499887003       13.0665042227       26.4948497697
 Hg        39.9233965141       16.4228618341       26.7383629178
 Hg        43.1048347624       19.7843970697       26.9132438493
 Hg        33.4882286763        6.9595565015       30.2133833954
 Hg        36.4890144583       10.2041107509       30.2774536370
 Hg        39.5555760374       13.3199953077       30.2970491378
 Hg        42.8369302973       16.3718794700       30.2379197144
 Hg        39.9690642849       13.3954185483       17.2250470018
 Hg        22.5054000574       35.4681684661       42.9137354872
 Hg        36.6668635794       26.4647330506       33.3131134164
 Hg        13.1854721632       10.0575908832       26.8011983875
 Hg        16.7080870759       13.1268659770       26.6920883308
 Hg        19.9924749020       16.4943229557       26.7255946986
 Hg        40.0181043053       30.0710871714       33.4748606968
 Hg        25.9102970793       37.7849732695       43.2649924420
 Hg        39.8197789157       12.7886293153       23.2217572563
 Hg        43.1301520793       16.6643442893       23.8269965328
 Hg        43.7567286311       32.8078350768       30.9545521306
 Hg         6.4881044121       12.4053245064       26.2733120449
 Hg        10.3677316061       12.9327623314       26.8046147322
 Hg        13.3416268324       16.5182042797       26.6799996112
 Hg        16.7188820314       19.7799533917       26.7179598315
 Hg        20.0235462560       23.1349210034       26.6871740432
 Hg        23.3467605757       26.4742138053       26.6787890419
 Hg        26.6804055811       29.8099317872       26.6881269788
 Hg        30.0097049104       33.1228623875       26.6797123167
 Hg        33.3270225493       36.5051869601       26.6862046375
 Hg        36.9360522387       39.7114160822       26.7805740858
 Hg        27.5922743219       14.2381507309       42.7937203955
 Hg        11.2556111121       19.5268688063       40.4545233107
 Hg         6.2126800312       30.6799197506       17.0271171306
 Hg        10.4626841990       36.1282558224       17.2078507679
 Hg        13.4583348632       39.3525711636       16.9117807464
 Hg        19.0385406119       43.5400950230       16.9926024560
 Hg        23.3389568658       19.8124518989       26.6979889467
 Hg        13.0600801992       23.0686033050       39.8867208283
 Hg         6.9527534806       29.2988221502       20.5904848649
 Hg         9.9769008398       33.1324713716       19.8773826744
 Hg        13.3171321585       36.5028054193       19.9388791201
 Hg        16.5294421246       39.8120321570       19.7402016521
 Hg        20.4274862982       42.8499270213       20.5850239309
 Hg         6.7336699863       25.6516703175       12.0841225665
 Hg         6.9849387029       26.3080694942       23.5215070629
 Hg        10.0758013793       29.8087823855       23.3559338648
 Hg        13.3298065142       33.0891024717       23.3601505539
 Hg        16.6969791355       36.4590497178       23.3465534566
 Hg        19.9515111669       39.7330007076       23.3133048386
 Hg        23.4567923626       42.8175411589       23.4886937426
 Hg        11.3802186302       30.1582291850        9.4816408580
 Hg        29.6411510083        6.7074648515       20.4276849934
 Hg        16.6818433327       26.5425120910       39.9590931863
 Hg         6.9887282340       23.2852406681       26.5209396199
 Hg        10.1059411011       26.5079020545       26.6835738651
 Hg        13.4547789620       29.7811589848       26.6491188288
 Hg        16.6553453049       33.1530557329       26.6935040073
 Hg        20.0190050959       36.3678704416       26.6322444107
 Hg        23.2795519507       39.7283811579       26.6531033597
 Hg        26.4850826716       42.8294900627       26.4995879067
 Hg        13.7145030628       32.7488413833        9.9097302146
 Hg        26.6712856297       23.1420536667       26.6827722082
 Hg        40.0188846633       16.5226389318       19.9342169063
 Hg         7.1024150747       27.3358113705       35.6615294981
 Hg        10.4284929734       30.0503975852       36.5083251271
 Hg        13.5884575585       33.1605751202       36.4206967940
 Hg         6.9506213756       20.2682678986       29.4202697301
 Hg        10.1454773489       23.2100048055       29.9340367971
 Hg        13.4561464606       26.4405527086       30.0113289970
 Hg        16.7559445646       29.7581591568       29.9665869126
 Hg        20.0578373609       33.0643278588       29.9622284696
 Hg        23.3652578643       36.3806118275       29.9963943479
 Hg        26.5894938620       39.7334629490       29.9765996375
 Hg        29.3881659974       42.6147908196       29.3929115374
 Hg        17.0233800034       36.0793839916        9.9095531409
 Hg        19.9564742832       29.8743577360       39.5947399400
 Hg        16.5947717874       19.5456602546        7.1956217396
 Hg        20.0132505362       22.8688054781        6.9063965449
 Hg        23.4965036299       26.2697499023        6.9895363942
 Hg        26.8762308423       29.7821124384        6.9020338900
 Hg        30.1980543019       33.2019205273        7.1573733059
 Hg        29.9971812352       26.4860319395       26.6913108321
 Hg        42.7837573928       20.3782955748       20.6223189433
 Hg        26.7887023462       10.0398408640       13.2148054690
 Hg        23.2263726661       33.1478638451       39.8817131231
 Hg        19.9410992676       19.7290801198       10.4499245276
 Hg        23.3539854208       23.0690016270       10.1010474080
 Hg        26.6837975209       26.4704867274       10.1076944193
 Hg        30.0600405029       29.8592858353       10.4375405580
 Hg        33.3101822355       29.8511003183       26.7268198518
 Hg        16.5906506146       30.0134483948       42.8698924232
 Hg         6.2529923309       18.8565950511       33.0020408883
 Hg        10.0646991479       19.8316069932       33.2559913317
 Hg        13.3669353121       23.1589556280       33.3136379680
 Hg        16.6681169683       26.4873139477       33.3742867243
 Hg        20.0719638262       29.7649278269       33.2725520247
 Hg        23.3482062263       33.1760737263       33.3717570591
 Hg        26.6916950048       36.5048002725       33.3404517370
 Hg        30.1217522514       39.8459853486       33.2676934918
 Hg        30.2063635566       16.3705653952       42.8630531981
 Hg        16.6841597763       13.3483576058       13.5973575031
 Hg        19.9274211549       16.6605471622       13.3721571889
 Hg        23.3821573152       19.8141008733       13.4697324006
 Hg        26.6382699173       23.1474556561       13.4310768784
 Hg        29.9938675363       26.4300956179       13.4588560961
 Hg        33.1224039822       29.8747051084       13.3527040038
 Hg        36.4055201677       33.1401475594       13.5957904579
 Hg        36.6542687454       33.1218441839       26.6958363737
 Hg        19.6250506077       38.4010901518        9.4967495841
 Hg        40.4548308281       11.0344997697       19.6466783951
 Hg        20.6686462136        6.8852611520       35.8036474570
 Hg        13.3160792829       13.1576436230       30.1592414219
 Hg        23.2534275552       10.0527537830       36.8701670113
 Hg        26.7053030246       36.6373520096       39.5009819751
 Hg        19.9219323903       13.1458259575       16.9149483304
 Hg        23.3393732327       16.4315531539       16.6688802712
 Hg        26.7041690602       19.7659538503       16.7346309360
 Hg        30.0252734210       23.1055547308       16.7287403488
 Hg        33.3533693786       26.4804347720       16.6727837018
 Hg        36.6605146781       29.8940129999       16.9223963937
 Hg        39.4793514197       36.6251041827       26.7056754388
 Hg        13.4179885540       19.7416472232       36.8466854576
 Hg        16.6879636965       23.1486658958       36.6969038123
 Hg        20.0287098494       26.4545804815       36.5883958863
 Hg        23.3855577833       29.8182241849       36.5775589115
 Hg        26.6917401541       33.1338660625       36.6739619827
 Hg        30.1374544082       36.7164374955       36.6063871155
 Hg        16.5236873142        6.9614634292       19.8626044488
 Hg        19.9481106579       10.2466184337       19.9752426490
 Hg        23.3803011474       13.2323659840       20.0506308237
 Hg        26.7087236406       16.4865467687       20.0106429602
 Hg        30.0193273736       19.7943392354       20.0283792647
 Hg        33.3055544216       23.1429456630       20.0247733472
 Hg        36.5667620585       26.4471901101       20.0361146978
 Hg        39.5729025182       29.8724063435       19.9585897854
 Hg        42.8349168770       33.3049078576       19.8783495133
 Hg        32.9721984787       39.9128216428       36.2833118021
 Hg        23.3290183126       29.8086142429       16.6992771990
 Hg        16.6744970420       16.4439900256       30.0738287674
 Hg        20.0010161891        6.7179206276       23.1594449265
 Hg        23.3373772788        9.8706711314       23.3601603504
 Hg        26.6728898701       13.1767950170       23.3693013198
 Hg        30.0397777776       16.4772600580       23.3235937112
 Hg        33.3100233002       19.7727044452       23.3463140073
 Hg        36.6176045423       23.1590761337       23.3842829801
 Hg        39.9106472054       26.4951874001       23.3362378556
 Hg        43.0941857753       29.8344633089       23.1558998888
 Hg        43.2489859402       37.7630011555       25.9342173090
 Hg        20.0147863887       19.8034197773       30.0336284421
 Hg        13.5610887086       17.0247132445       39.9952170656
 Hg        16.7229627942       19.7144966558       40.0297770421
 Hg        20.0216574442       23.1952948940       39.9236331004
 Hg        23.3285115695       26.4961795459       39.9317339217
 Hg        26.6167685838       29.7297830815       39.8708388857
 Hg        23.4561826031        6.7348366344       26.5887980545
 Hg        26.6799189649        9.8703347112       26.7034975898
 Hg        29.9936861968       13.2304074726       26.6576952280
 Hg        33.3594132747       16.4294682770       26.6936409570
 Hg        36.5681763454       19.8049901527       26.6586021097
 Hg        39.9254932397       23.1492139948       26.7342545318
 Hg        43.0213255009       26.3062338466       26.5446187616
 Hg        30.1470041192       13.1373327879       13.3408764599
 Hg        30.0213790014       33.0745691442       39.9549411014
 Hg        26.6618517514       33.1541264785       16.6488481670
 Hg        23.3392375370       23.1361813010       30.0142768260
 Hg        26.6800501863       26.4864366454       30.0097294193
 Hg        30.0078400819       29.8347835869       30.0216846804
 Hg        33.3185963500       33.2212220222       30.0648453233
 Hg        36.5771846645       36.6953800315       30.1419721063
 Hg        26.8950730155        6.7202878624       30.0440912533
 Hg        30.0666898597       10.2491300226       30.0933124797
 Hg        33.1320434372       13.1453453012       30.1187845935
 Hg        36.6702497587       16.6702453158       30.0786453820
 Hg        39.5698159058       19.7156275881       30.0499936495
 Hg        43.1024491921       22.9511682386       30.0814667145
 Hg         7.0992589115       22.2456395380       14.4135253430
 Hg        38.6182036454       40.3177081120       30.3649005042
 Hg        26.6194167368       36.3641954531       20.0054228345
 Hg        20.5970346908       20.3843698313       42.8022840446
 Hg        23.5034400395       23.2963601156       43.0382486568
 Hg        26.5305104412       26.3065326724       43.0448567946
 Hg        30.1753757016        6.9604715431       33.5163116630
 Hg        36.4241792388       13.3857681444       33.3752826763
 Hg        42.8363281463       19.6807533085       33.5400491357
 Hg        10.5127548541       26.4802535936       13.1985811243
 Hg        29.5283650910       29.2449846329       43.0667815562
 Hg        30.9236841167       32.8192773155       43.7870006192
 Hg        30.0610383927       36.4640928165       16.8750096654
 Hg        26.4660869497       13.0683237437       36.7706273193
 Hg        30.3934912280       40.3516299086       38.6243407651
 Hg         7.1696155352       16.2584323492       19.9006636836
 Hg        36.5156456345       19.5827977534       39.6365390014
 Hg        13.4015123494       29.9125941105       13.1096329630
 Hg        33.4915878047       16.4471204346       13.3455431961
 Hg        16.4504352802       33.3387939704       13.0478367450
 Hg        30.0517225820       16.6689641002       36.6911881805
 Hg        43.1456107115       23.5790108296       16.9256941271
 Hg        26.7885292198       12.9126229143       10.3969261773
 Hg        13.5364364723       30.0998376890       39.5796455716
 Hg        29.4154471051       20.2373642083        6.9645839993
 Hg        33.0124876751       23.5859775318        7.1241461197
 Hg        35.6648380610       27.3003606220        7.1161710645
 Hg        12.8768589932       11.0599610320       33.6651979856
 Hg        43.5518718255       25.9659388862       37.4375753531
 Hg        16.5473889642       13.0684496714       33.5221258193
 Hg        19.9396476833       16.4497010775       33.4112228164
 Hg        23.3302831810       19.7780879028       33.3264734433
 Hg        26.6564704415       23.1450608060       33.3091513158
 Hg        30.0276749546       26.5113720517       33.3200486925
 Hg        33.3533297294       29.8755791341       33.3787904374
 Hg        36.6576802990       33.3129041621       33.3920255265
 Hg        24.0529097830        6.2607283957       37.6975521428
 Hg        30.2138439390       39.3704302511       13.5066837989
 Hg        33.1007552731       19.6914302118       36.6732212675
 Hg        10.4283229353       19.5406242204       13.5524550391
 Hg        14.0117781486       20.3236255177       42.6995549800
 Hg        30.2693884107       13.3209323896       39.5764313339
 Hg        13.3127914768       13.0645374045       23.5588837994
 Hg        19.9462933208       13.1595214798       36.8234489181
 Hg        35.6581415972        6.8556222802       27.5763088062
 Hg        23.3295713680       16.4622699993       36.6997113417
 Hg        22.5865984637       14.0729978990        7.0569243280
 Hg        16.6518970152       16.4418812936       23.3519799957
 Hg        13.3465591386       23.2767696505       13.2528132876
 Hg        26.6379488087       19.8033899709       36.5879892802
 Hg        14.2183696241        6.9149279852       29.3937511325
 Hg        16.6711657419        9.8100890623       30.1024360299
 Hg        29.9832757334       23.1772692265       36.5780547380
 Hg        42.7757196517       14.2394076484       27.6237730376
 Hg        16.9104807610       23.5900777628       43.1678230210
 Hg        20.0031613256       26.6823864906       43.1280208190
 Hg        33.2990191064       26.4596427757       36.6855395266
 Hg        36.7135941221       29.8846013063       36.6883976363
 Hg        39.5771885975       32.9083688207       36.5369424242
 Hg        20.0163564624       19.8055252111       23.3986033447
 Hg        16.6629676559       36.2237996885       36.4297036394
 Hg        19.7265810526       39.3720310248       36.4962332961
 Hg        22.4011168879       42.5910259311       35.5570839283
 Hg        36.6838687821       23.2874595023       36.7028702517
 Hg        16.6688370256       26.4679851618       13.3296369369
 Hg        20.0372131204       29.7383457014       13.3731947890
 Hg        23.3429015911       23.1397714610       23.3516154980
 Hg        39.6699515575       26.5105426576       36.8702162883
 Hg        14.4613164460       22.1573496978        7.2443162105
 Hg        16.9284069415       25.9704710468        6.8463371248
 Hg        20.5990221645       29.1693793419        7.2138208702
 Hg        23.7756457235       32.8546599249        6.8387659946
 Hg        27.5922717053       35.3285792698        7.2251892458
 Hg        20.0120231629       13.1532689985       30.0464837069
 Hg        23.3044083941       16.4832709098       30.0576822307
 Hg        26.6357280288       19.8034391284       30.0107021818
 Hg        29.9937432365       23.1796877095       30.0092393364
 Hg        42.2979218454       29.4926967657       36.4744516446
 Hg        13.5265813152       19.4866580824       10.4702388972
 Hg        16.6640183894       23.0602863516       10.0844298861
 Hg        20.0247431966       26.3718265316       10.0938641946
 Hg        23.3841461872       29.7669276146       10.0959918766
 Hg        26.7129720722       33.1120506516       10.0695301055
 Hg        30.2716936490       36.2601915009       10.4383865426
 Hg        26.6673247472       26.4726742570       23.3529477305
 Hg        33.3007048781       26.5108134938       30.0465677446
 Hg        29.9933189882       29.8025716468       23.3892364999
 Hg        33.0157382264        6.8324489749       23.9085880858
 Hg        10.4484154789       19.7402266832       19.9642055638
 Hg        14.0941290163       29.2572116980        7.2566550551
 Hg        13.5913629629       16.4255184894       13.6244170446
 Hg        16.9087951081       19.7095553921       13.3581694570
 Hg        20.0132143772       23.1520933054       13.4497328677
 Hg        23.3447873998       26.4403540791       13.3949861206
 Hg        26.6404129095       29.7818094787       13.4452601796
 Hg        30.0797247191       32.8994944898       13.3453370924
 Hg        33.3297628857       36.2191411880       13.5970640992
 Hg        33.3499617319       33.1735795685       23.3467755341
 Hg        20.5004634533       35.6900135118        7.2565858679
 Hg        13.5730237829       13.3509172770       16.7033724874
 Hg        16.7418467662       16.5455243356       16.7606169197
 Hg        20.0648497414       19.8358255886       16.7678631033