    1259
 i =       82, E =    -30809.7748719008
 Hg        33.5358439542       19.6638703278       42.8895450710
 Hg        36.8571604971       19.7167438796       13.4110014495
 Hg        33.4201823502       42.6706224863       19.7754269223
 Hg         7.4722411053       29.1660460595       13.7617218786
 Hg        13.0034078505       36.9280348985       14.4998903925
 Hg        20.5568479019       42.2731849563       13.7326116600
 Hg        42.8162186395       27.4125110546       14.4521741035
 Hg         7.0783681934       25.9483621554       17.0266365684
 Hg        10.0221273701       29.7992854325       16.7458171347
 Hg        13.2699185957       33.2780824053       16.4432000389
 Hg        16.5836323837       36.4717253915       16.4929365802
 Hg        19.9707441632       39.7503897133       16.7315700313
 Hg        23.7758154146       42.7061359050       16.9798192136
 Hg        25.9763686044        6.1988405953       12.3920264344
 Hg        42.7033551669       13.7733649213       20.5119590907
 Hg        23.2819454743       33.1264758107       19.9574102254
 Hg         6.8903264892       22.8856343210       20.0122312856
 Hg        10.1257259257       26.3791477420       20.1134539199
 Hg        13.3500172071       29.7913798615       19.9932241093
 Hg        16.6141564135       33.1649031855       19.9319229279
 Hg        20.0108984114       36.4443595203       20.0191539573
 Hg        23.3707822650       39.6842163372       20.0672328648
 Hg        26.8474514600       42.9271744205       19.9575611205
 Hg        36.8764014345       10.0083018307       23.2900697730
 Hg         7.1317535335       33.3198808398       30.1910365447
 Hg        35.7053104424       22.3274674827       43.0404010712
 Hg        33.1897029096       13.3561290605       10.4137797493
 Hg        10.3694222112       13.2639528981       19.8231221144
 Hg        10.3617136638       36.3219067423       30.2554415125
 Hg         6.8940626339       19.7215972182       23.1796666723
 Hg        10.0737942082       23.0763927608       23.3666344743
 Hg        13.3918584580       26.4589382337       23.3681891551
 Hg        16.6848963046       29.8356469611       23.3078843494
 Hg        19.9607876823       33.1170030313       23.3041921959
 Hg        23.3445639522       36.4170127545       23.3691121517
 Hg        26.6726011975       39.7451383394       23.3158070266
 Hg        29.9990189367       42.9493471799       23.1055091492
 Hg        29.7977148191       13.3663402419        7.7076739076
 Hg        13.4570165107       39.4395980357       30.2413196966
 Hg         7.0976267914       16.6942074784       26.2399860055
 Hg        10.0516590718       19.7569930419       26.7224269690
 Hg        13.4021535984       23.1639395670       26.6512413218
 Hg        16.7123366163       26.4568505577       26.6820858249
 Hg        20.0079753841       29.8112061728       26.6402448570
 Hg        23.3523208617       33.1159352222       26.6763628268
 Hg        26.6529804515       36.4531694250       26.6661676678
 Hg        29.9895222530       39.7555706911       26.6192628800
 Hg        33.0776763506       43.0064360213       26.1997773548
 Hg        40.4884340620       19.4871102747       11.2488139573
 Hg        16.4509248785       42.6567494098       30.1414234930
 Hg         7.6694648486       13.4055225561       29.8053403331
 Hg         9.9724571914       16.3558644953       30.2848620575
 Hg        13.3859480638       19.8451157934       29.9974274877
 Hg        16.7032269546       23.1091939522       30.0556895708
 Hg        20.0197555214       26.4418946865       30.0183481537
 Hg        23.3839756064       29.8151931195       30.0211368638
 Hg        26.6982985351       33.1455030683       30.0551628977
 Hg        29.9649442645       36.4763536651       29.9767580175
 Hg        33.2837872081       39.8719706551       30.1378965641
 Hg        35.9286287956       42.6087201890       29.4756869732
 Hg        13.3334035355       16.6589261523       19.9225165729
 Hg        16.7377536402       19.8316112717       20.0706740901
 Hg        10.3866937059       13.3843453359       33.1986561046
 Hg        13.2990165707       16.4454151715       33.5233417614
 Hg        16.6973461129       19.7671972291       33.4204654385
 Hg        20.0059144565       23.1436914652       33.3383454906
 Hg        23.3733924908       26.4853932492       33.3413277433
 Hg        26.7270392896       29.8659464600       33.3429171922
 Hg        30.1178920069       33.2493988306       33.3887593653
 Hg        33.5824258265       36.8018506490       33.5731247592
 Hg        36.3077253134       39.9451001189       32.9675221786
 Hg        13.0370617061       26.5715808138       10.1062147140
 Hg        20.0040362079       23.1694386775       20.0156547670
 Hg        13.5897168075       13.6331680660       36.3263827616
 Hg        16.5598502192       16.3573318412       36.8867648722
 Hg        20.0779017778       19.8599206992       36.6534949494
 Hg        23.3727966400       23.1641080458       36.6585532757
 Hg        26.6735827238       26.4570475092       36.6424825362
 Hg        30.0093781229       29.8372009644       36.6648555515
 Hg        33.4983597153       33.3814223655       36.7361996100
 Hg        37.1486054126       35.3252229211       36.9901511336
 Hg        16.7215940185       29.9073996035        9.9477850531
 Hg        17.5255190472        6.6705184569       32.5302474528
 Hg        33.2764526724       19.7907023041       10.0587584313
 Hg        23.3244491782       26.4849015799       20.0088158753
 Hg        17.1933908712       13.3796684512       40.0074530675
 Hg        19.8903322190       16.5143778467       40.0735911145
 Hg        23.3949559200       19.8057228676       39.9627171710
 Hg        26.7054888914       23.1305521487       39.9740493312
 Hg        30.0300333945       26.4786037074       39.9842203358
 Hg        33.3659461535       29.9660413094       40.0685349947
 Hg        36.3786089453       32.6199320287       39.5776232478
 Hg        19.8577762319       33.0610183917        9.9480581810
 Hg         7.1567831563       19.5825243868       16.5432953625
 Hg         6.9917917234       14.0966968631       22.5886770674
 Hg        10.1532315761       16.4908114820       23.1862343898
 Hg        23.1974026457       36.7457734065       10.0946249034
 Hg        13.4416371321       19.8142549480       23.3993498703
 Hg        26.6305930708       29.8115779714       20.0117789317
 Hg        29.9536113972       33.0771229173       20.0494102878
 Hg        20.4768495682       13.7753365616       42.7183694011
 Hg        23.8073049162       16.6520622232       43.1795681901
 Hg        26.8970489520       19.7657726083       43.1670782690
 Hg        30.0618352194       22.9342345819       43.1588194909
 Hg        33.1100989515       25.9734092630       42.9720434881
 Hg        36.3718280037       29.4359246988       42.3994671538
 Hg        35.8116027052        6.8359899336       20.7039100170
 Hg        10.1210553490       22.9895408846       16.6772977958
 Hg        13.3197221177       26.4750649717       16.6821805862
 Hg        16.6249559048       29.8979853476       16.5807460127
 Hg        37.6863604306        6.2044513281       24.0981386645
 Hg        30.0589264527       39.3973840993       19.9342399637
 Hg        19.9308778527        9.7789248523       33.4230558090
 Hg        19.9009519141       16.2138802388        7.1657525716
 Hg        23.1742414512       19.6981427694        6.8973407103
 Hg        26.5162299118       23.2531390239        6.9647048771
 Hg        30.0372126707       26.6554502419        6.8899291247
 Hg        33.5196205967       29.9377862860        7.1533923223
 Hg        33.4016946946        9.7676583307       19.9671523650
 Hg        16.7056775426       23.1567736063       23.3477795246
 Hg        33.1106090472       36.4962750952       19.9095492089
 Hg        20.0086839200       26.4837444276       23.3349189298
 Hg        23.3385521506       13.0914068120       33.3520853219
 Hg        19.8066423314       13.2405565910       10.3954334410
 Hg        23.1770474883       16.4712641938       10.1717974969
 Hg        26.7113476081       19.7369735193       10.0643126984
 Hg        29.9388522321       23.1791976250       10.1363744679
 Hg        33.3423252770       26.5928495920       10.1269842892
 Hg        36.5151740769       30.0360057787       10.4160846239
 Hg        36.8315825915       13.1142144883       19.9679062834
 Hg        23.3285730885       29.8124436838       23.3340649761
 Hg        26.6474864334       33.1290164133       23.3420400160
 Hg        26.6778156672       16.4113008451       33.3995263345
 Hg        19.7645078085       10.1630425577       13.5092018698
 Hg        23.5433805190       13.0289266683       13.3146018736
 Hg        26.6740779543       16.4872092446       13.3388527748
 Hg        29.9879425166       19.8264684673       13.4026473864
 Hg        33.3146212306       23.1373291207       13.3562636135
 Hg        36.7781861088       26.3221750462       13.3479599544
 Hg        39.5873038532       30.0938536531       13.5279402827
 Hg        29.9940465010       36.3997125623       23.3629099766
 Hg        33.3431887567       39.7786968852       23.2785982312
 Hg        35.5525546552       42.6288077418       22.3855497863
 Hg        33.0275404433       18.8366211978        6.2386559010
 Hg        12.3604928814        6.2143387931       25.9975478298
 Hg        19.8256651740        6.9317900902       16.5339370419
 Hg        23.1765134872        9.9142981790       16.7379933013
 Hg        26.6776533876       13.0903026963       16.7216375771
 Hg        30.0749937394       16.4067416323       16.6786223077
 Hg        33.4041304451       19.7532346222       16.7142519142
 Hg        36.7015907776       23.1341116102       16.6897128521
 Hg        39.9705698616       26.5384813716       16.6733205059
 Hg        42.8752456619       30.0201050506       16.5880191304
 Hg        29.9627904373       19.8423160252       33.2962566062
 Hg        36.2623691392       20.4013857429        7.5148736564
 Hg        37.9859845895       23.8959745186        6.7110790894
 Hg        37.4817823593       25.9386781605       43.5845153538
 Hg        30.2757836326       16.3338940972        9.9882550617
 Hg         6.4147123893       37.2471890138       23.9007763556
 Hg        23.1210044032        6.6793025876       20.0240850703
 Hg        26.6602131779        9.8449889183       20.0458886376
 Hg        30.0406131736       13.1153850562       20.0256191990
 Hg        33.4166412744       16.4182166987       19.9532357321
 Hg        36.6371240462       19.8522866418       20.0949281172
 Hg        39.9373961661       23.1829440546       20.0273942172
 Hg        43.1436710691       26.6838518146       20.0059214521
 Hg        12.5165379255       43.3593101997       23.8617573453
 Hg        19.9246827943       33.1299139550       16.5751715785
 Hg        36.4879150613       39.3938941742       19.7192465971
 Hg        23.3034885934       36.4737578209       16.6765931656
 Hg        26.7792080246       39.6841493044       16.6568899208
 Hg        26.5632009773        6.6978183150       23.4836113777
 Hg        30.0031296097        9.8399414573       23.3933603755
 Hg        33.3367605952       13.0858299615       23.3623677916
 Hg        36.7081571293       16.4413117259       23.3528362484
 Hg        39.9441881540       19.8085840862       23.4256095256
 Hg        43.0493414234       23.2955388593       23.5256062108
 Hg        32.5144471415        6.6582982554       17.5662398956
 Hg        30.1272123693       42.6548298933       16.4786727313
 Hg         6.6926555399       23.9225995073       37.9935300847
 Hg        19.8662256250       33.3326548945       42.8838431927
 Hg        33.3665089800       23.1152087898       33.3839561388
 Hg        36.8227426580       23.1441780362       10.4753278635
 Hg        30.0304626631        6.6842810723       26.9296838389
 Hg        33.3209503375        9.9267767157       26.8727511943
 Hg        36.7778682583       13.0445545609       26.4937457337
 Hg        39.9631601788       16.4042213950       26.7442700923
 Hg        43.1458419333       19.7755197961       26.9220202308
 Hg        33.5074333597        6.9358166437       30.2270305096
 Hg        36.5124434661       10.1800085033       30.2850569190
 Hg        39.5805098996       13.3031014853       30.3053375133
 Hg        42.8680484224       16.3588753460       30.2518688436
 Hg        39.9959137794       13.3724494868       17.2235101932
 Hg        22.5015899098       35.4973850793       42.9432778928
 Hg        36.6886616451       26.4677867715       33.3257555764
 Hg        13.1688787743       10.0242753782       26.8016266878
 Hg        16.6971231663       13.1003928237       26.6952247178
 Hg        19.9822873082       16.4768676036       26.7333646262
 Hg        40.0491494765       30.0859322699       33.4918592660
 Hg        25.9088435627       37.8064913301       43.3143901015
 Hg        39.8383141172       12.7725370912       23.2079255107
 Hg        43.1634803408       16.6531673808       23.8398725784
 Hg        43.7997412068       32.8306820828       30.9446713891
 Hg         6.4492125818       12.3811675453       26.2714469191
 Hg        10.3340687880       12.9073437977       26.8124010976
 Hg        13.3193198966       16.5028699441       26.6848601399
 Hg        16.7032210272       19.7647048483       26.7275066237
 Hg        20.0139825128       23.1284116643       26.6924105721
 Hg        23.3437248951       26.4774721800       26.6832899964
 Hg        26.6843338370       29.8212399181       26.6928842185
 Hg        30.0213608492       33.1409572389       26.6867977064
 Hg        33.3388236294       36.5276132436       26.6878115172
 Hg        36.9536121298       39.7272273462       26.7960893929
 Hg        27.6073931979       14.2202800051       42.8363533560
 Hg        11.2281794517       19.5054275717       40.5064970567
 Hg         6.1779973892       30.6796187552       17.0028150977
 Hg        10.4230906511       36.1552861707       17.2112101733
 Hg        13.4305050890       39.3919533808       16.9201027155
 Hg        19.0476099271       43.5856067339       16.9718183729
 Hg        23.3357465063       19.7996070472       26.7044171417
 Hg        13.0413780604       23.0514566597       39.9029728684
 Hg         6.9228076563       29.3002946749       20.5781665180
 Hg         9.9485270451       33.1495003519       19.8669750419
 Hg        13.2911278973       36.5267545434       19.9351134345
 Hg        16.5153345960       39.8493183421       19.7299820976
 Hg        20.4237687951       42.8863554920       20.5743961595
 Hg         6.6871434687       25.6497309341       12.0682221995
 Hg         6.9564724547       26.3085136376       23.5210486704
 Hg        10.0440289306       29.8206800565       23.3497521701
 Hg        13.3077825119       33.1014472032       23.3587415026
 Hg        16.6832497225       36.4861813798       23.3450984222
 Hg        19.9354289698       39.7660292951       23.3046772230
 Hg        23.4537935997       42.8545551240       23.4885702666
 Hg        11.3495296195       30.1726423293        9.4415190314
 Hg        29.6474880785        6.6758604360       20.4239497241
 Hg        16.6629209570       26.5452264030       39.9944660755
 Hg         6.9597870107       23.2839428140       26.5234428804
 Hg        10.0781629786       26.5106088139       26.6879757916
 Hg        13.4364562693       29.7907098421       26.6496489563
 Hg        16.6390804062       33.1727876787       26.6977085324
 Hg        20.0091852124       36.3884045518       26.6336758607
 Hg        23.2745976681       39.7584189003       26.6556950125
 Hg        26.4849738969       42.8654475213       26.4981542869
 Hg        13.6991968202       32.7517347798        9.8861403197
 Hg        26.6747114930       23.1361119112       26.6876362991
 Hg        40.0575702316       16.5108135530       19.9214219299
 Hg         7.0738349483       27.3387099966       35.6834356869
 Hg        10.4093039170       30.0553614565       36.5282903978
 Hg        13.5682723180       33.1754335530       36.4441173165
 Hg         6.9207485588       20.2623619850       29.4298186129
 Hg        10.1255224112       23.2063890615       29.9438868135
 Hg        13.4407864398       26.4412240107       30.0221155357
 Hg        16.7427924751       29.7669976653       29.9763309336
 Hg        20.0485216872       33.0798687812       29.9732229811
 Hg        23.3637639578       36.4019166231       30.0082411629
 Hg        26.5934257004       39.7646924136       29.9874002285
 Hg        29.3931380887       42.6499876883       29.3978973127
 Hg        17.0239658627       36.0947127380        9.8864965911
 Hg        19.9515934279       29.8801722674       39.6162049485
 Hg        16.5846206348       19.5343595927        7.1679022206
 Hg        20.0078240891       22.8640671345        6.8669110923
 Hg        23.5018523836       26.2706258358        6.9596812320
 Hg        26.8879120607       29.7954561704        6.8663422199
 Hg        30.2165906170       33.2163795825        7.1325494317
 Hg        30.0076011096       26.4888082706       26.6949448697
 Hg        42.8229739564       20.3736071853       20.6181166331
 Hg        26.7887670312       10.0078423401       13.1992530501
 Hg        23.2205535642       33.1656616927       39.9107548065
 Hg        19.9381629375       19.7234443169       10.4289174259
 Hg        23.3540532250       23.0651345971       10.0699087011
 Hg        26.6887647253       26.4753999852       10.0770949627
 Hg        30.0673289158       29.8657207979       10.4198507072
 Hg        33.3269677686       29.8632573698       26.7348677718
 Hg        16.5796196678       30.0297753598       42.8926169554
 Hg         6.2155625018       18.8667912461       33.0256748403
 Hg        10.0365139579       19.8188722813       33.2811323185
 Hg        13.3447041560       23.1508748420       33.3304077480
 Hg        16.6537494699       26.4891774020       33.3955889067
 Hg        20.0624639605       29.7731072745       33.2881149511
 Hg        23.3433701193       33.1933590948       33.3914303383
 Hg        26.6918546324       36.5272565423       33.3520783299
 Hg        30.1318159586       39.8832041637       33.2791286905
 Hg        30.2261635506       16.3562946525       42.8876334865
 Hg        16.6703117050       13.3294305181       13.5771644598
 Hg        19.9189076858       16.6485662875       13.3498033654
 Hg        23.3851941169       19.8018731955       13.4503439855
 Hg        26.6409870485       23.1446311864       13.4087954724
 Hg        30.0034088653       26.4316633529       13.4429346418
 Hg        33.1381991803       29.8844920267       13.3323844443
 Hg        36.4276809676       33.1580946464       13.5761856078
 Hg        36.6784061475       33.1424532325       26.7028841604
 Hg        19.6086533832       38.4369811943        9.4499555561
 Hg        40.5083519824       11.0025119804       19.6371954998
 Hg        20.6694073320        6.8403028338       35.8228803516
 Hg        13.2987648844       13.1184026135       30.1668048575
 Hg        23.2509082794       10.0162115309       36.8960636995
 Hg        26.7028068544       36.6606021743       39.5436170459
 Hg        19.9106414989       13.1214817196       16.9008198306
 Hg        23.3364653558       16.4132124509       16.6538223069
 Hg        26.7129553949       19.7535602556       16.7179046903
 Hg        30.0391846199       23.0982448158       16.7116480097
 Hg        33.3721560758       26.4829144808       16.6575238033
 Hg        36.6832703596       29.9031977369       16.9103388602
 Hg        39.5247227652       36.6496114116       26.7037094993
 Hg        13.3888352376       19.7321313784       36.8727090830
 Hg        16.6781146459       23.1444422493       36.7227981993
 Hg        20.0196490196       26.4526193782       36.6154932368
 Hg        23.3859714268       29.8296537245       36.5988476405
 Hg        26.6963661030       33.1530383163       36.6993506259
 Hg        30.1464525828       36.7409318633       36.6352327651
 Hg        16.5063648742        6.9369389055       19.8511636808
 Hg        19.9420103593       10.2231155998       19.9689716780
 Hg        23.3788267602       13.2130059012       20.0409809687
 Hg        26.7154980090       16.4702142546       20.0007910936
 Hg        30.0325159050       19.7813642994       20.0172669409
 Hg        33.3215836403       23.1376299066       20.0156268684
 Hg        36.5931517820       26.4464211151       20.0269402851
 Hg        39.5933849514       29.8786566714       19.9546117014
 Hg        42.8641552898       33.3256622243       19.8722650236
 Hg        32.9724940978       39.9455801285       36.2972325653
 Hg        23.3238524111       29.8218807988       16.6835276137
 Hg        16.6589062702       16.4195073763       30.0896951550
 Hg        19.9953545909        6.6833008024       23.1554508896
 Hg        23.3356816763        9.8420682846       23.3573154649
 Hg        26.6757700033       13.1567537837       23.3677222133
 Hg        30.0551865521       16.4595291632       23.3179977938
 Hg        33.3274669034       19.7615413356       23.3421484742
 Hg        36.6410077180       23.1568881266       23.3828512780
 Hg        39.9444088445       26.4983389241       23.3345728267
 Hg        43.1282482986       29.8455004117       23.1502768786
 Hg        43.3017689251       37.7863720150       25.9306707094
 Hg        20.0034139936       19.7883710453       30.0485079817
 Hg        13.5442967262       17.0139453912       40.0198927996
 Hg        16.7119996929       19.6987373938       40.0697398184
 Hg        20.0139607539       23.1871779305       39.9578850652
 Hg        23.3267686879       26.4986736607       39.9660762643
 Hg        26.6189699017       29.7376317246       39.8953921473
 Hg        23.4580780095        6.7001894158       26.5906614847
 Hg        26.6838833500        9.8417357831       26.7074066390
 Hg        30.0047033997       13.2128519928       26.6598566106
 Hg        33.3798115532       16.4112292248       26.6988857879
 Hg        36.5947015065       19.7907048638       26.6578864062
 Hg        39.9594976513       23.1463372333       26.7398628604
 Hg        43.0528949688       26.3091890253       26.5489020050
 Hg        30.1553443787       13.1014344371       13.3241349727
 Hg        30.0316377633       33.0980661077       39.9858350825
 Hg        26.6658220456       33.1743004174       16.6321571906
 Hg        23.3363103620       23.1312552374       30.0257078549
 Hg        26.6826541446       26.4888561533       30.0209783963
 Hg        30.0193524230       29.8470325797       30.0337558626
 Hg        33.3369566647       33.2423803606       30.0826894695
 Hg        36.6106183952       36.7188347767       30.1507502926
 Hg        26.9034880809        6.6854416207       30.0548157612
 Hg        30.0753687434       10.2295744782       30.0998105432
 Hg        33.1501461391       13.1219774510       30.1299696646
 Hg        36.6936281150       16.6583232134       30.0907502290
 Hg        39.5928829696       19.7116905983       30.0593696234
 Hg        43.1385164926       22.9464739768       30.0921958575
 Hg         7.0721715256       22.2425818819       14.3906169177
 Hg        38.6452013162       40.3772445367       30.3804617198
 Hg        26.6219469175       36.3837910116       19.9951019817
 Hg        20.5957692255       20.3785741605       42.8473374087
 Hg        23.5086290292       23.2965495379       43.0696642141
 Hg        26.5355830915       26.3100186195       43.0770517588
 Hg        30.1903431406        6.9363100101       33.5360119090
 Hg        36.4490530078       13.3642161725       33.3932150026
 Hg        42.8709680221       19.6708110005       33.5601495806
 Hg        10.4710370676       26.4755191195       13.1794486326
 Hg        29.5313929335       29.2597622628       43.1022556968
 Hg        30.9132053061       32.8477339792       43.8289862564
 Hg        30.0728880022       36.4905274321       16.8605659902
 Hg        26.4659866383       13.0433205892       36.7943845351
 Hg        30.4063467803       40.4014600628       38.6541224169
 Hg         7.1380728204       16.2448012607       19.8887543754
 Hg        36.5376714077       19.5780263516       39.6623462503
 Hg        13.3737277873       29.9210320297       13.0903608168
 Hg        33.5118712427       16.4250659526       13.3206021212
 Hg        16.4279572564       33.3599126963       13.0255488810
 Hg        30.0654572441       16.6558457532       36.7148152373
 Hg        43.1739776579       23.5909597781       16.9148820106
 Hg        26.7996223838       12.8875269203       10.3696910118
 Hg        13.5186338782       30.1057333797       39.6035446057
 Hg        29.4261645538       20.2307526238        6.9364068897
 Hg        33.0190506554       23.5899957528        7.0972556393
 Hg        35.6867374950       27.3051062073        7.0861813250
 Hg        12.8563167695       11.0132912718       33.6901609990
 Hg        43.5825710906       25.9616875490       37.4750433512
 Hg        16.5316139124       13.0404203337       33.5394138169
 Hg        19.9284212141       16.4272221918       33.4341672871
 Hg        23.3257597443       19.7641806401       33.3442276317
 Hg        26.6591509573       23.1373422120       33.3264400552
 Hg        30.0384309261       26.5150417437       33.3354264249
 Hg        33.3707558556       29.8873004857       33.3994376243
 Hg        36.6809564925       33.3295499987       33.4171999454
 Hg        24.0569881041        6.2164117119       37.7163050057
 Hg        30.2215325769       39.3997672893       13.4852798046
 Hg        33.1164659012       19.6803332897       36.6955631205
 Hg        10.4099494326       19.5338751333       13.5273533769
 Hg        13.9925543587       20.3266109560       42.7429712478
 Hg        30.2778884823       13.3023188759       39.5993833551
 Hg        13.2884946400       13.0428566817       23.5622281942
 Hg        19.9380722832       13.1248056597       36.8462979000
 Hg        35.6776158381        6.8205513587       27.5812851928
 Hg        23.3290653639       16.4444939473       36.7264510333
 Hg        22.5857096267       14.0556127500        7.0240039400
 Hg        16.6360472388       16.4209407502       23.3496008483
 Hg        13.3299481258       23.2790236720       13.2279743151
 Hg        26.6371428193       19.7872690640       36.6148159761
 Hg        14.2010426140        6.8727680530       29.3981502160
 Hg        16.6601182900        9.7701071198       30.1139978106
 Hg        29.9924348676       23.1772909251       36.6011425042
 Hg        42.8152014959       14.2203704012       27.6351928700
 Hg        16.8998895994       23.5995384004       43.1929266048
 Hg        19.9948450257       26.6880148698       43.1672138687
 Hg        33.3118211226       26.4628435470       36.7104564910
 Hg        36.7391686364       29.8877486697       36.7149444483
 Hg        39.6084880384       32.9038871287       36.5631428911
 Hg        20.0067417511       19.7923377578       23.3990143793
 Hg        16.6477178081       36.2460326712       36.4513256819
 Hg        19.7179735891       39.4013566238       36.5134732142
 Hg        22.3902246364       42.6339052192       35.5712578597
 Hg        36.7075545125       23.2916113581       36.7271819435
 Hg        16.6601480249       26.4691944286       13.3084040373
 Hg        20.0312349630       29.7481992524       13.3489246175
 Hg        23.3402821194       23.1339564865       23.3494758893
 Hg        39.6994429137       26.5222395041       36.8952361239
 Hg        14.4484405991       22.1504553729        7.2053592236
 Hg        16.9181233551       25.9628886300        6.8199103913
 Hg        20.5987840234       29.1754574212        7.1759628810
 Hg        23.7928491232       32.8744533366        6.8137039631
 Hg        27.6082072959       35.3504716853        7.1888496548
 Hg        20.0035348917       13.1249071487       30.0591158913
 Hg        23.2993313509       16.4642244868       30.0735670819
 Hg        26.6381954016       19.7892855577       30.0226801176
 Hg        30.0041000806       23.1771833910       30.0196118761
 Hg        42.3541355052       29.4877454000       36.4829875518
 Hg        13.5114660529       19.4798305828       10.4431038023
 Hg        16.6491769649       23.0582142337       10.0470731678
 Hg        20.0177853005       26.3778488685       10.0616518780
 Hg        23.3818729897       29.7802878016       10.0651914577
 Hg        26.7201191220       33.1386515537       10.0352979627
 Hg        30.2809899575       36.2796135416       10.4183478172
 Hg        26.6705270966       26.4766135397       23.3506523341
 Hg        33.3170561817       26.5164277776       30.0596181379
 Hg        30.0034217570       29.8147632987       23.3880030133
 Hg        33.0307206070        6.8057441693       23.9152741684
 Hg        10.4285366144       19.7328880666       19.9590753231
 Hg        14.0682596541       29.2486493237        7.2214277061
 Hg        13.5723986037       16.4103316893       13.6027170822
 Hg        16.8975569557       19.7009327832       13.3354656122
 Hg        20.0054625408       23.1529754910       13.4273132808
 Hg        23.3438886200       26.4443900223       13.3721306716
 Hg        26.6401160487       29.7974119426       13.4220666439
 Hg        30.0921469815       32.9123555133       13.3263324125
 Hg        33.3446932781       36.2423612111       13.5781584858
 Hg        33.3674393003       33.1909817510       23.3440550592
 Hg        20.5120476857       35.7176872039        7.2206786292
 Hg        13.5494156341       13.3314287578       16.6893743372
 Hg        16.7242449489       16.5300768343       16.7422971322
 Hg        20.0567055669       19.8276147056       16.7535897966