     935
 i =      199, E =    -17464.5647775245
 Cl         9.7014494375        7.6320447036       10.3222927319
 Cl         8.4426641331       12.3959975431       14.2494229192
  H         8.5618570302       13.3410464352       10.8052005385
  H         9.9944324000       13.5661587314       17.3824773091
  H         8.8326771511       19.3683986761       16.6449084376
  H         9.9229942429       20.6203343098       24.3074808342
 Cl         8.4367846536       22.8954099639       21.1463384603
 Cl         8.3513719706       24.3369823160       25.6403332854
 Cl         8.4223907683       28.9085675909       27.1583574186
 Cl         8.5134351330       29.8303551011       31.8682395839
  H         8.8572646542       33.3128838159       30.5322978815
  H         9.1678728238       33.3076951980       36.4099596391
 Cl         8.4140746038       34.5635039201       32.7773742387
 Cl         8.4054125982       35.2785002513       37.5124179013
 In         9.7927179790        9.8758998881        9.7942319337
 In        10.2070621552       12.7341914654       12.7289867461
 In        10.3618701183       15.7518863636       15.8360443492
 In        10.3639201817       18.9306075809       18.7643447736
 In        10.3718659246       21.8697521912       21.9540592403
 In        10.3755419104       25.1323012398       24.7965052527
 In        10.3628757356       27.9741761304       28.0638940168
 In        10.2911705162       31.0893125193       31.0006822491
 In        10.2756409802       34.0258783625       34.1065034457
 In        10.0433974070       36.9540085124       37.2112801758
 Cl        10.4118746163       10.4477355386        7.6337616896
 As        11.6034243309       11.1011395503       11.3267443414
 Cl        11.7178163270       11.8540955831       17.2535814128
 Cl        11.5117196608       14.3307855975        8.9919222574
 As        11.7371114120       14.3561526830       14.1911325941
 Cl        11.8555547988       14.5308998915       20.2347904855
 Cl        11.9031181525       17.3623662779       11.6081027931
 As        11.7943258139       17.2933036886       17.3917240759
 Cl        11.6814390853       17.8155237069       23.1635444452
 Cl        11.7730174252       20.3057093687       14.8321196014
 As        11.7946143873       20.4732562570       20.3072284675
 As        11.8106224480       23.4690839902       23.4231152556
 Cl        11.7340198216       23.8764034483       29.3881600682
 Cl        11.8902200302       26.3029199296       20.6891336697
 As        11.7909991260       26.4998669263       26.4871277988
 Cl        11.6494972730       26.8083639370       32.2008134409
 Cl        11.8353635729       29.2944555809       23.7994683328
 As        11.7724519214       29.6307313057       29.4504872561
 Cl        11.7147658946       29.9791963218       35.5086910060
 Cl        12.2736965753       32.3948206419       26.3703729584
 As        11.7301687135       32.5532706662       32.5459139861
 As        11.6184825962       35.7258101760       35.4623468973
 Cl        12.4560711175       38.6451466162       32.4626961258
 Cl        11.5437059328       37.0778914520       39.0163732297
 In        13.0617629236        9.6356947599       12.8991207479
 In        12.9812023435       12.6633704178        9.7924938821
 In        13.2280868065       12.8875163768       15.7532953935
 In        13.2955551064       15.8368682772       12.7299780317
 In        13.3042372917       15.8306346243       18.9291488586
 In        13.2987657700       18.8449058259       15.9094477102
 In        13.3005666930       18.9311165915       21.8476699413
 In        13.3842656869       21.9514595391       18.8543170309
 In        13.3002439669       21.9609881490       24.9671603544
 In        13.3768593928       24.9611183132       21.9534871074
 In        13.2951268882       24.9652184351       27.9791649042
 In        13.3736152363       27.9886973740       25.0439835285
 In        13.2333934069       28.0809522323       31.0036958211
 In        13.3849513734       31.0890900122       27.9884690213
 In        13.2225066721       31.0728904310       34.0418180717
 In        13.3075750619       34.1005181397       31.1523955243
 In        13.1378240488       34.2663210424       36.9539986795
 In        13.2975620026       37.1991834348       34.0987856417
 Cl        14.7158733220        8.3162683164       11.9058129644
 Cl        15.5748707950        8.0458782754       16.7559242642
 As        14.6454956197       11.3084569719       14.2855743154
 As        14.6708714264       14.2440972800       11.2277756653
 As        14.7509332361       14.3395072441       17.3631928564
 Cl        14.9125252251       14.5837417483       23.1916706686
 Cl        15.4268004732       16.9252657419        8.0586629556
 As        14.7399750786       17.3840512379       14.3271170558
 As        14.7992301483       17.3982031176       20.3881140611
  H        15.8952945073       17.6535317287       27.2120829794
 As        14.8344114911       20.3911911117       17.3713333790
 As        14.7640635999       20.3865755372       23.4747389797
 Cl        14.8304069535       20.8976639824       29.4728134540
 Cl        15.0767543690       23.1849670212       14.4499322781
 As        14.8404292016       23.4217668364       20.4605895481
 As        14.7950453656       23.4586002320       26.4880458215
  H        15.9286273464       22.8175859205       32.4999155157
  H        14.1264842347       25.3554090651       17.5942952513
 As        14.8297058518       26.4978721293       23.4838004337
 As        14.7361299365       26.4890680392       29.5440004982
 Cl        14.8061337531       26.8340707056       35.5139124495
 As        14.8609423057       29.5052826749       26.5404906373
 As        14.7251839552       29.5332798296       32.5671764622
  H        15.6100258559       28.7105725242       38.4234091824
  H        14.0318421999       32.0144298480       24.2725930747
 As        14.7872809313       32.6040873783       29.5741511147
 As        14.6622656592       32.5579153905       35.6323096940
 Cl        14.9347615798       35.5993509752       26.8901794747
 As        14.7968969690       35.5752002696       32.6736305242
  H        14.0397612629       36.4795986902       38.0803899749
  H        13.8790118611       38.0825718396       30.3582210442
 In        16.3214358375        9.9515558138       15.6692938752
 In        16.1511799288       12.8253600207       12.8141541088
 In        16.3926002912       12.8935011756       18.7751151110
 In        16.2494714065       15.7484521000        9.8796418469
 In        16.2532496555       15.8465706076       15.8385422543
 In        16.3312007255       15.9050097710       21.8709673036
 In        16.3276913339       18.8520677863       12.9031750661
 In        16.3238645457       18.8596801328       18.8579567145
 In        16.4093037145       18.9308900026       24.8891469252
 In        16.3981018995       21.8727712629       15.9002604545
 In        16.3248608331       21.8742999670       21.9590022611
 In        16.3252885505       21.9553414302       27.9860084426
 In        16.4000909245       24.8878761185       19.0025148335
 In        16.3170722860       24.9671539551       24.9744615879
 In        16.3306618554       24.9671499683       30.9247458592
 In        16.3300917125       28.0630474535       22.0252975764
 In        16.3236797090       27.9822782929       28.0667266002
 In        16.2397553873       27.9907238327       34.0276308360
 In        16.4019821794       30.9921078635       25.0543273149
 In        16.2411046377       31.0723206443       31.0840876040
 In        16.0831641565       30.9196808874       37.0327939725
 In        16.3181058471       34.1076707444       28.0694766682
 In        16.2430039562       34.0279357212       34.1764147329
 In        16.2299147224       37.0331951821       31.0845672775
  H        18.5802333862        9.6742298870       14.1717627638
 Cl        17.5027175430        9.0497708191       20.4199392790
 Cl        17.6285943088       11.5288302735       11.5137833262
 As        17.8184477464       11.3253930541       17.3154721045
 Cl        17.8747789605       11.6242739696       23.2607805445
  H        18.3253215768       14.0012801669        9.5388457688
 As        17.7237114956       14.3349509844       14.3320547510
 As        17.8372852629       14.3687164022       20.3761147720
 Cl        17.7551650104       14.7979140688       26.2927785279
 As        17.7297356013       17.3339786200       11.3732058588
 As        17.8196844666       17.3542063606       17.3434739754
 As        17.8512413927       17.4035321645       23.3916354824
 Cl        17.4973365633       20.5420520519        9.1881226263
 As        17.8736628582       20.4032038130       14.3356471544
 As        17.8091616195       20.4130485304       20.3922203977
 As        17.8162474897       20.4485223485       26.4731266209
 Cl        17.8055775258       20.8511477725       32.4694177484
 Cl        18.3528428363       23.5309452912       11.5150094035
 As        17.8509648466       23.4684177543       17.3953565428
 As        17.8047996863       23.4417772360       23.4640649896
 As        17.8567444889       23.4493263115       29.4884726642
 Cl        18.1934103323       26.4018737697       14.4993713940
 As        17.7889144341       26.5577720773       20.4311247043
 As        17.8100909982       26.4801605958       26.5200076857
 As        17.7216829630       26.4472998879       32.5478692225
 Cl        18.2486793085       27.3009895765       38.8944726998
 Cl        18.0892755466       29.4447592576       17.6402242876
 As        17.8878707330       29.5485850544       23.5032288669
 As        17.7713151614       29.5323506380       29.5923709820
 As        17.7085299113       29.5081989892       35.5544787193
 Cl        18.2077245105       32.4452794992       20.5508148346
 As        17.8050906092       32.6048965314       26.5188871384
 As        17.7638353926       32.5518612605       32.6347101001
 Cl        17.0212396835       31.7314556615       39.0107249302
 Cl        18.1409457043       35.5873438777       23.7495314872
 As        17.8113848041       35.6720881615       29.5327990747
 Cl        14.5349371919       38.1943357553       35.8149679149
 Cl        17.2307782734       38.8769304789       32.0524017834
 In        19.1776587907        9.7959271865       18.9407081589
 In        19.2658803695       12.8904628950       15.8377104188
 In        19.3398706665       12.8233944790       21.8817695856
 In        19.2555544241       15.8473435141       12.8909249594
 In        19.3462793932       15.8406657111       18.8497128579
 In        19.3407586829       15.9171348492       24.9612006872
 In        19.0973778335       18.9413382238        9.8693370326
 In        19.3488080866       18.8549386339       15.8384414082
 In        19.3417420002       18.9249016931       21.8845640485
 In        19.3380370146       18.9268558281       27.9776728235
 In        19.4227791887       21.8849354288       12.8225703158
 In        19.3395859495       21.9501469373       18.9252348246
 In        19.3421908091       21.9496377720       24.9675338649
 In        19.3407617352       21.9587241640       31.0709800414
 In        19.4160451899       24.9672301303       15.9176344060
 In        19.2765281591       24.9786775295       21.9460825788
 In        19.3488239967       24.9707392994       27.9942051807
 In        19.2566258901       24.9483138521       34.0308442019
 In        19.4139521769       27.9929975068       18.9310356678
 In        19.3447923652       27.9931659943       25.0360330719
 In        19.2711327434       27.9852489839       31.0797110582
 In        19.3345372372       28.0755044966       36.9683815302
 In        19.4254115245       31.0775683953       22.0238553354
 In        19.2739724544       31.0219038566       28.0507833683
 In        19.2632643939       31.0004341225       34.0919280767
 In        19.4152452736       34.0964347460       25.0576739163
 In        19.1073047039       33.9461412503       30.9232875359
 In        19.5028289410       37.1985534020       28.1585030242
 Cl        21.5455471561        8.0407871842       22.8028258013
 Cl        20.5081258511       11.3865305694       14.5086149857
 As        20.8024915432       11.3075295600       20.3762627523
 As        20.8826719194       14.3310459928       17.3409545818
 As        20.8034000945       14.3459303668       23.4788774246
 Cl        20.8980266220       14.5635563672       29.2098274390
 Cl        20.0856552484       17.7018348392        8.1471998727
 As        20.8743089008       17.3522477206       14.3316307572
 As        20.8272215919       17.3594687249       20.4231187699
 As        20.8488829862       17.4293818711       26.4745606834
  H        21.5996320658       17.8919013629       33.3504939093
 As        20.8361048805       20.3483536819       11.2817923731
 As        20.8076031115       20.4256548774       17.3943470363
 As        20.8360450463       20.4342220170       23.4418143641
 As        20.8057268485       20.3960382161       29.5764244006
 Cl        20.9617545195       20.7844979289       35.5923257533
 As        20.8581943053       23.4167163599       14.4206749168
 As        20.8307086556       23.4804675159       20.4479863414
 As        20.8530741363       23.4443949827       26.5045176054
 As        20.8423951063       23.4699088396       32.5851666332
  H        21.8021580333       22.7119474287       38.5254856120
  H        20.0602035587       26.3504647009       12.6635737714
 As        20.9143507035       26.5069874469       17.4105552957
 As        20.8163256613       26.4828737731       23.4716211501
 As        20.8126390400       26.4811145182       29.5675595734
 As        20.7497130864       26.4042656652       35.5992283547
 As        20.8694034376       29.5183707909       20.4888052285
 As        20.8284385437       29.5144955422       26.5620321065
 As        20.7757479637       29.4701406909       32.6119875609
  H        20.0561224086       31.9835718743       18.2031134023
 As        20.9113758848       32.5813603414       23.5439897644
 As        20.8130379005       32.5515977162       29.5523547027
 Cl        20.4831491245       32.2177063086       35.7004227905
 As        20.8626719136       35.6120761404       26.5895876967
  H        19.9184265396       37.4874159723       23.7044452813
 Cl        20.8811947212       38.0402540080       29.8368853256
 In        22.4400842120        9.9556492477       21.8586558021
 In        22.3372175096       12.8238181142       18.9294298674
 In        22.4368386786       12.9641882075       24.9632798867
 In        22.3486734795       15.9864545257       15.9813165364
 In        22.3469568713       15.8433699541       21.9585247524
 In        22.3669000745       15.9144887400       27.9801649011
 In        22.3559167908       18.9237149271       12.8303775036
 In        22.2825898848       18.9367720828       18.9424644483
 In        22.3555260903       18.9303816816       24.9687329042
 In        22.4373033194       18.9342794776       30.9971322964
 In        22.3690466436       21.9422011228        9.9482170169
 In        22.3639995944       21.9427457890       15.9201120546
 In        22.3550784246       21.9534123941       21.9503855113
 In        22.3516126505       21.9394619302       28.0626725797
 In        22.3597796337       21.9552925240       34.0923683162
 In        22.3548857665       24.9656991621       12.9803259199
 In        22.3677930670       24.9762374263       18.9335362572
 In        22.3519410902       24.9686779354       24.9729364438
 In        22.3550137949       24.9737845224       31.0778356047
 In        22.2683211297       24.8744869056       37.0431183919
 In        22.4323637529       28.0632395814       15.9206235149
 In        22.3655688556       27.9855129378       21.9586789240
 In        22.3479376211       27.9838583308       28.0630630950
 In        22.2785973569       27.9157667873       34.0966984051
 In        22.4313904837       30.9905038604       19.0183945840
 In        22.3615408394       31.0098996528       25.0436154288
 In        22.2730668769       30.9998930673       31.0885482870
 In        22.4368606969       34.1003275276       22.0343046298
 In        22.3623236113       34.0997456883       28.0639450530
 In        22.2779478306       37.0400757227       24.9615194358
  H        24.8445174883        9.4349343415       20.7081762000
 Cl        23.5030487465        8.9886635487       26.4539832211
 Cl        23.6843220514       11.3362663637       17.6957121391
 As        23.8683492681       11.3959501675       23.4750177721
 Cl        23.7554306161       11.6402754310       29.2576056147
  H        24.5716506887       14.5286026435       15.5306187457
 As        23.8404414520       14.3633635806       20.4369808488
 As        23.9210405909       14.4090089803       26.5157466577
 Cl        23.6919779445       14.9916655554       32.4482805779
 Cl        23.7243221965       17.6036201338       11.4570319001
 As        23.8329862092       17.4811236524       17.4732249142
 As        23.8549353907       17.4086871573       23.4489917200
 As        23.8860730439       17.4128821120       29.5022447906
 Cl        23.7385754229       17.7271152204       35.3793498232
  H        24.5917637069       20.3655366405        9.6536172332
 As        23.8300182772       20.4523365694       14.3819365224
 As        23.8502784294       20.4417292045       20.4294741444
 As        23.8523446619       20.4560202291       26.4994593477
 As        23.8373731365       20.4447330842       32.5697886185
 Cl        24.1735922773       21.2759291496       38.9320549044
 As        23.8078032481       23.5659904857       11.3792040884
 As        23.8809286861       23.4799589107       17.4148694103
 As        23.8656080511       23.4662679485       23.4650989248
 As        23.8589702236       23.4685936055       29.5504597885
 As        23.8791804335       23.4690633548       35.6000906737
 Cl        23.8488903822       26.5498371028        8.7494884769
 As        23.8880656228       26.5811701066       14.3380456631
 As        23.8960172953       26.5102725209       20.4334493226
 As        23.8384638818       26.4901740915       26.4989482037
 As        23.8749504189       26.5012041818       32.5951813121
 Cl        23.0086892396       25.9153409552       38.9970549231
 Cl        24.5042532997       29.5861478130       11.4293562299
 As        23.9229268160       29.5758170299       17.4458194294
 As        23.8588969794       29.5151217557       23.4841811578
 As        23.8121171531       29.5263272107       29.5614056249
 Cl        23.4411409762       29.1766974586       35.7251148379
 Cl        24.3274557853       32.5176415627       14.4990394585
 As        23.8783040927       32.5955434156       20.4541993704
 As        23.8592902576       32.5246179846       26.5802976425
 Cl        23.5417702508       32.3206129397       32.5534704803
 Cl        24.2139770530       35.6026495999       17.6872130703
 As        23.9300596591       35.6639546024       23.4987547177
 Cl        23.8700012337       35.3254569670       29.3552844419
 Cl        24.3789129102       38.7386988961       20.8777599239
 Cl        23.1208763024       38.9984817388       25.8503597501
 In        25.2167675972        9.8034145542       25.0625145932
 In        25.3691007564       12.8943743465       21.9587570187
 In        25.3757694503       12.8149846550       28.0587935771
 In        25.3002492105       15.9084788891       18.9382111408
 In        25.3750168059       15.9115280061       24.9720891916
 In        25.3717561826       15.9129205187       31.0784856349
 In        25.3065849026       18.9442380938       15.9078615896
 In        25.3701122455       18.9298890631       21.9484998904
 In        25.3739464031       18.9338222911       27.9935735053
 In        25.3040104579       18.8491335241       34.0285024879
 In        25.2930276149       22.0368730702       12.9050554240
 In        25.3814268529       21.9472280426       18.9217445496
 In        25.3778370212       21.9484081268       24.9746684619
 In        25.3694781216       21.9497250549       31.0722672623
 In        25.3965037559       21.9442835321       37.0401252507
 In        25.2948122512       25.0565018346        9.8005059485
 In        25.3740045920       25.0427153170       15.9068066141
 In        25.3761043841       24.9721533187       21.9476241238
 In        25.3632742206       24.9595306546       27.9846394162
 In        25.3822792865       24.9735357293       34.0966386919
 In        25.5401786273       27.9904731913       12.8226233545
 In        25.4424041292       28.0539033903       18.9384876963
 In        25.3756770938       27.9924121998       24.9787903156
 In        25.3045699881       27.9160092707       30.9334778115
 In        25.4705967406       31.0816989066       15.9846666405
 In        25.3803482598       31.0206567752       21.9554830121
 In        25.3847068938       30.9958918282       28.0569255432
 In        25.4637723528       34.1051271857       19.0104792902
 In        25.2247662668       33.9329023196       24.8857674034
 In        25.6159834465       37.1987737741       22.1205766899
 Cl        26.3246150378        8.1775088918       23.8106049672
 Cl        27.4938736305        7.9386502972       28.9533415208
 Cl        26.6392541686       11.4058783768       20.6599900872
 As        26.8518322943       11.2808597245       26.5245618203
 As        26.8967311104       14.3536853583       23.5027240706
 As        26.8228387592       14.3512392029       29.5969513453
 Cl        27.0314400316       14.9039153217       35.6913248755
 Cl        26.4333734182       17.4107106053       14.5229362657
 As        26.8766988762       17.4257033738       20.4007432154
 As        26.8812190094       17.3989749111       26.5181085606
 As        26.9069498811       17.3967261782       32.5921968139
 As        26.9006571130       20.4046629906       17.4078921946
 As        26.8903540857       20.4222711445       23.4794162642
 As        26.8692111213       20.4333045217       29.5570045292
 As        26.7888844504       20.3085628900       35.6024228475
 Cl        26.3372328141       23.5581826160        8.3232369071
 As        26.8717064845       23.5083871193       14.3978509521
 As        26.8837201807       23.4578755529       20.4444745005
 As        26.8998193480       23.4499494169       26.5012486920
 As        26.8537270538       23.4310698009       32.6080194462
 As        26.9882324282       26.4226786706       11.3017612695
 As        26.9156352366       26.5352350410       17.4153149535
 As        26.8824656179       26.4794830536       23.4676437108
 As        26.8616197817       26.4444899911       29.4846756994
 Cl        26.5779645895       26.2942482106       35.6220407710
 As        26.9199115727       29.5289982258       14.4570593864
 As        26.9473325475       29.5596686621       20.4489110674
 As        26.8629486406       29.5023413590       26.4952858335
  H        27.0532097459       29.9222266979       31.3659140000
  H        26.0880032164       32.4135250068       12.6893893672
 As        26.9758055489       32.6162161571       17.4720528390
 As        26.9143546378       32.5619565309       23.4551591789
 Cl        26.7127210961       32.0997244704       29.6416432781
 As        26.9477342539       35.6178753489       20.5234860860
  H        26.0284424628       37.5333805613       17.6923461676
 Cl        26.9777717696       38.0750587018       23.7929386142
 In        28.4083034749        9.8821094119       28.0668999205
 In        28.3898330970       12.8172117920       25.0583401729
 In        28.3093440808       12.8805792468       31.1632304695
 In        28.2352129003       16.0691135361       22.1222774012
 In        28.3278323910       15.8403935897       28.0724033300
 In        28.4727554369       15.9189108395       34.1164590396
 In        28.4662857590       18.9342205267       18.9336839399
 In        28.3953472783       18.9300646500       25.0438319548
 In        28.3937189696       18.9259106771       31.0822991361
 In        28.3189525690       18.7696773510       37.0426738276
 In        28.3223330852       22.0439056096       15.9885393751
 In        28.3939676459       21.9435241134       21.9537417727
 In        28.3944919986       21.9489809063       28.0679133164
 In        28.3144796820       21.8610288596       34.1076403745
 In        28.4627129455       24.9755049799       12.9017616566
 In        28.3893084750       24.9782820619       18.9319652214
 In        28.4019225762       24.9732787483       24.9758866499
 In        28.3158716721       24.9659763559       31.0816296238
 In        28.4825459681       28.0631741131        9.9531174988
 In        28.4691135667       28.0543815626       15.9184260485
 In        28.4020118249       27.9857928240       21.9535183253
 In        28.3828371162       27.9900396343       27.9879886920
 In        28.3967983116       31.0802237146       12.9904399248
 In        28.4838293132       31.0878273991       18.9374792510
 In        28.3839299195       31.0033976947       24.9732821221
 In        28.5548163269       34.1048188511       15.9944352108
 In        28.4760775191       34.0958773905       21.9570004106
 In        28.3907219164       37.0404251640       18.9228075640
  H        29.8032476700        9.5056812237       33.4445881599
 Cl        29.7173716015       11.4551718906       23.6982847203
 As        29.8232841516       11.3421190698       29.6949578150
 Cl        29.8989747898       11.2469107408       35.1228076929
 As        29.8725161518       14.3488897912       26.5850745398
 As        29.8781752989       14.3158256465       32.6553085985
 Cl        30.1769988502       15.4268724061       39.0083070415
 Cl        29.7275465529       17.5154553674       17.5755786629
 As        29.9364859170       17.4058586052       23.5459146796
 As        29.8630776457       17.3609451563       29.5773850232
 As        30.0090322349       17.4272075673       35.6422783953
  H        30.6618631309       20.9297872274       15.2419288395
 As        29.9295701453       20.4448216103       20.4781599067
 As        29.9071423002       20.4231040155       26.5612887748
 As        29.9066862093       20.4288967345       32.6228788785
 Cl        28.8919579236       20.0340662475       38.9479895224
 Cl        29.8003058413       23.3947058561       11.7928395442
 As        29.9114592591       23.5107631563       17.4389230760
 As        29.9034265760       23.4358302825       23.4833611286
 As        29.8864370220       23.4889821007       29.5962274147
 Cl        29.4311452979       23.2269962830       35.6831257873
  H        30.8172595123       26.7006004688        9.5632007830
 As        29.9372143335       26.5555918160       14.3880504627
 As        29.9166724060       26.4649546348       20.4456580285
 As        29.9236159564       26.4815771176       26.5197551035
 As        29.8809208451       29.6883721976       11.4112558541
 As        29.9773788774       29.5735797548       17.4082041379
 As        29.8952980051       29.5138251263       23.4468626667
 Cl        29.5720472679       29.3056600456       29.5180598302
 Cl        29.8182594704       32.7428522792        8.8897043836
 As        29.9664340758       32.6511604288       14.3558004428
 As        30.0211150357       32.5778368895       20.4767608699
 Cl        30.4693536904       35.8489753542       11.6545284722
 As        30.0382323814       35.6427836263       17.4857372517
 Cl        29.2654589286       38.9949617448       19.7970139315
 Cl        30.8308414666       38.8778426397       14.9040953087
 In        31.3270803890        9.8767147689       31.2454867161
 In        31.3299541029       12.8207307315       28.1523739960
 In        31.4107796766       12.7376407914       34.1130798844
 In        31.4114963668       15.8292200062       25.0669304690
 In        31.3364950187       15.8442350923       31.1536321829
 In        31.4938290036       15.8331924904       37.1082723387
 In        31.4156352167       18.9371776814       22.0283498015
 In        31.3971564595       18.8471619692       28.0619598174
 In        31.4853621709       18.9262844473       34.1061298491
 In        31.4112066365       21.9543775545       18.9316042592
 In        31.4061024845       21.9502175613       25.0449804400
 In        31.3415058496       21.8631376913       31.0056125478
 In        31.4091940214       25.0422070815       15.9129989654
 In        31.4257223511       24.8937590935       21.9347698137
 In        31.4151451056       24.9674330436       28.0650553960
 In        31.3969860399       28.1446640228       12.8946018028
 In        31.4153099247       27.9992045138       18.9326600585
 In        31.3439051666       27.9137335636       24.8830059853
 In        31.3242864509       31.2534940757        9.8717230363
 In        31.4864660103       31.0727427666       15.8332801518
 In        31.4819115618       30.9978263748       21.9578509070
 In        31.5708102088       34.1811203693       12.9094547833
 In        31.4941574505       34.0185340616       18.8696722207
 In        31.7438796420       37.1209505363       16.1555267114
 Cl        32.0165423638        8.0188641319       29.9835681707
 Cl        32.5210682464       11.3133597928       26.7912924985
 As        32.9931032668       11.2545219510       32.6465462602
 Cl        32.6872639143       11.1907601918       38.3396215312
 Cl        32.8201010404       14.5039750243       23.7547799024
 As        32.8659806202       14.3162515029       29.6573934315
 As        32.8555828216       14.1586668356       35.7178592681
 Cl        32.7898498269       17.6540724032       20.6255727262