35
 i =        7, E =      -977.2015570680
 Cd        11.2056810194       16.4812859154       11.2153244877
 Cd        11.2271008996        8.5117795375       13.7876513342
 Cd        14.0978467194       14.1089322094       10.8862736149
 Cd        16.4848410276       13.7929445137       13.7745922908
 Cd         8.5066157790       13.7732461439       11.2205261915
 Cd        13.7752679207       16.4897141100       13.7788664138
 Cd        13.7787890786       11.2157362698        8.5097751627
 Cd         8.5186791884       11.2086957351       13.7896791071
 Cd        10.8908937720       14.1028172879       14.1081407800
 Cd        14.1120341383       10.9005518325       14.1031506027
 Cd        11.2061519039       13.7770642075        8.5119095553
 Cd        11.2254106346       11.2164396251       16.4914757032
 Cd        13.7862536532       13.7882251868       16.4840761983
 Cd        10.8918808558       10.8865821911       10.8945660864
 Cd        13.7895627941        8.5167561406       11.2170617141
 Cd        16.4875141705       11.2261721722       11.2093000794
  S        12.4976653230       12.4997064187       12.4974946131
  S        12.3508738488       15.6904393598       15.6878662313
  S         9.3139262574       12.6395512667       15.6955367866
  S        12.6585245277        9.3145362587       15.6902173909
  S        12.6310060537       15.6884228852        9.3042673754
  S        12.3555487164        9.3063935230        9.3110568183
  S         9.3027071472       15.6813802795       12.6478810125
  S        15.6826446420       12.6507320267        9.3022354419
  S        15.6793492128       15.6958574011       12.3449508414
  S        15.6953669943       12.3642567260       15.6841453446
  S         9.3157507470        9.3016512429       12.3612692947
  S        15.6970278006        9.3196475068       12.6415479433
  S         9.3038014341       12.3442816516        9.3136390253
 Cl        12.4893297542       12.4949084408        6.7730200038
 Cl         6.7747724417       12.4862476005       12.5088072283
 Cl        12.5133315950        6.7761051621       12.5038796951
 Cl        12.4856555065       18.2236718160       12.4958702028
 Cl        18.2246971603       12.5146091559       12.4886708887
 Cl        12.5093334718       12.5038968704       18.2260957492

