    1116
 i =       65, E =    -33963.7688806329
 In         7.5666334660       10.3164615296       19.3002245238
 In         7.8134242486       13.3514449235       16.3131564958
 In         7.4195349440       13.4162777350       22.4824051652
 In         7.8096823009       16.2602703045       13.3511978378
 In         7.6726127901       16.4723174231       19.4377384253
 In         7.4156322957       16.4731694553       25.5417905653
 In         7.5544098687       19.2914053280       10.3238632420
 In         7.6725426173       19.3819100931       16.4750138182
 In         7.6659910558       19.5282123366       22.4969728513
 In         7.4152173544       19.4754062594       28.5931091543
 In         7.4165174311       22.4308901894       13.4295340029
 In         7.6627533823       22.4554745429       19.5239930098
 In         7.6637165588       22.5649782518       25.5414270332
 In         7.4188791621       22.5696771804       31.6356910253
 In         7.4169073930       25.5318224268       16.4742191347
 In         7.6641983595       25.4796531183       22.5774832313
 In         7.6675732970       25.6249811331       28.5955858157
 In         7.5582856851       25.7134627712       34.7026647717
 In         7.4142377896       28.5300961043       19.5318652304
 In         7.6653210848       28.5748845419       25.6312021224
 In         7.8095214059       28.7468660867       31.7154393253
 In         7.4198333912       31.5840236555       22.5765308925
 In         7.8080205313       31.6620853199       28.7509222502
 In         7.5663288149       34.6849723251       25.7097847946
 In        10.2995209352        7.5752643496       19.2914103019
 In        10.3271285803       10.3841668956       16.3391957548
 In        10.3946293074       10.4551796602       22.4970370529
 In        10.2332757814       13.5182769183       13.5243022887
 In        10.4754332185       13.4264291347       19.5303365212
 In        10.3886687578       13.4293882322       25.5492860114
 In        10.3262980882       16.3362982401       10.3854775359
 In        10.6083115792       16.4791518966       16.4824755029
 In        10.4726999321       16.4164460922       22.5749253349
 In        10.3876095185       16.4135929626       28.5915328262
 In        10.2501343351       19.2899108045        7.5748006430
 In        10.4769429581       19.5217355024       13.4265490643
 In        10.5737648919       19.5117360384       19.5149266695
 In        10.4696639257       19.4445806097       25.6059164558
 In        10.3879290813       19.4579103913       31.5823270159
 In        10.3942436404       22.4968707820       10.4552084665
 In        10.4687306371       22.5692017682       16.4152497706
 In        10.6131647893       22.5013656659       22.5146675382
 In        10.4674878942       22.4377255221       28.6016180529
 In        10.3988894221       22.4986278862       34.6024864614
 In        10.3861768403       25.5477893457       13.4340805456
 In        10.4733999611       25.5616924502       19.4536760486
 In        10.5644044744       25.5382001144       25.5487356907
 In        10.4796160257       25.4812649080       31.6352353971
 In        10.2959734323       25.7145806722       37.4387662873
 In        10.3862730154       28.5830987612       16.4710038605
 In        10.4699486593       28.5885173559       22.4861266897
 In        10.6078402706       28.5222704282       28.5803741913
 In        10.3271544153       28.6723044956       34.6706851579
 In        10.3858358118       31.5686756720       19.4638382421
 In        10.4787147540       31.5854030458       25.5280303804
 In        10.2361377575       31.4855194712       31.4925752316
 In        10.3949173682       34.5426341707       22.5093229437
 In        10.3261090629       34.6224451212       28.6712133744
 In        10.2963858870       37.4273984580       25.7137891934
 In        13.2780461434        7.8187944764       16.2545436357
 In        13.3610012776        7.4274561914       22.4299027616
 In        13.5051097898       10.2420513478       13.5185225148
 In        13.3590449045       10.5053277612       19.5227096699
 In        13.4171669857       10.3918101963       25.5443078734
 In        13.5033000281       13.5160040337       10.2443453027
 In        13.4202738789       13.4385244701       16.4921180464
 In        13.4275706490       13.4374450873       22.5779555042
 In        13.3745833250       13.3764187230       28.5988934652
 In        13.2755219054       16.2514489886        7.8162236508
 In        13.4173964963       16.4895195208       13.4392349122
 In        13.5015290327       16.4741075998       19.5344371643
 In        13.4248155891       16.4128986352       25.6064487471
 In        13.3768502653       16.4111006007       31.6258022384
 In        13.3548016984       19.5207477599       10.4876216822
 In        13.5010876381       19.5323243660       16.4751979651
 In        13.5003656238       19.4533632162       22.5691056286
 In        13.4260395221       19.4020858253       28.5926514163
 In        13.4250010896       19.4597989662       34.6108707462
 In        13.3548965867       22.4228687300        7.4275504488
 In        13.4272714297       22.5750710724       13.4371014470
 In        13.5031508476       22.5599680533       19.4580373260
 In        13.4982986920       22.4844771182       25.5537089528
 In        13.4197232306       22.4262816598       31.5769404357
 In        13.3637188171       22.5706849256       37.5810953105
 In        13.4186056939       25.5465089537       10.3957429549
 In        13.4272933075       25.6034134382       16.4194331167
 In        13.5009997236       25.5489080329       22.4893089002
 In        13.4946120085       25.4710003820       28.5809232602
 In        13.3639941929       25.4884165664       34.5211545642
 In        13.3702114931       28.5940459552       13.4246490176
 In        13.4284656182       28.5847368060       19.4474129377
 In        13.4998415682       28.5334199244       25.4832102811
 In        13.4254933953       28.5152694163       31.5820478590
 In        13.2833948770       28.7513828606       37.1908040729
 In        13.3771511579       31.6225431748       16.4189330902
 In        13.4228374533       31.5655365324       22.4355755756
 In        13.4273776653       31.5662938945       28.5179789155
 In        13.5071940983       31.4873695193       34.7618439006
 In        13.4249570519       34.6080843937       19.4624517064
 In        13.3616875390       34.5200373220       25.4876145930
 In        13.5055320217       34.7609845462       31.4872608594
 In        13.3587068988       37.5749393795       22.5727229004
 In        13.2803533403       37.1846915841       28.7515036587
 In        16.2505355483        7.8185214200       13.3469000504
 In        16.4036074639        7.7240984575       19.3780857138
 In        16.4088955991        7.4181420277       25.5363748141
 In        16.3245506767       10.3742502957       10.3857254387
 In        16.4237990614       10.6192986317       16.4746881519
 In        16.3944644281       10.4738383071       22.5704739361
 In        16.4106345067       10.3917017668       28.5917650112
 In        16.2426314347       13.2891188877        7.8152557719
 In        16.4798735296       13.4350713656       13.4406322531
 In        16.4162954533       13.5109303585       19.5328289052
 In        16.4039936806       13.4344030907       25.6098744230
 In        16.4011617683       13.4200216002       31.6251131423
 In        16.4170440360       16.4671606820       10.6189337831
 In        16.4726790587       16.4825234197       16.4845259000
 In        16.4581612964       16.4708475915       22.5705952966
 In        16.4017062010       16.4097899255       28.5992177548
 In        16.4091070239       16.4299748527       34.6150279900
 In        16.4069053525       19.3735683041        7.7239745926
 In        16.4132675450       19.5266461021       13.5097609343
 In        16.4765584458       19.5128641252       19.5172321002
 In        16.4604106143       19.4540593123       25.5527218447
 In        16.4086020492       19.4367705836       31.5750044895
 In        16.4103482378       19.5272101119       37.5843858568
 In        16.3982379735       22.5575007081       10.4785715770
 In        16.4554865874       22.5690453190       16.4727131784
 In        16.4784650355       22.5029469841       22.5049482895
 In        16.4592704002       22.4324724343       28.5381526859
 In        16.4018572352       22.4870121134       34.5318441213
 In        16.4101671295       25.4791552607        7.4168969472
 In        16.4045515510       25.6030255360       13.4318338044
 In        16.4590525040       25.5527925309       19.4571846109
 In        16.4788579876       25.4832419577       25.5351781654
 In        16.4201738650       25.4799502808       31.5003683575
 In        16.4080993872       25.6288704117       37.3350115562
 In        16.4065060771       28.5851969570       10.3925189953
 In        16.4022642049       28.5959084746       16.4161254259
 In        16.4684065764       28.5251985544       22.4831603863
 In        16.4703301349       28.5215998472       28.5256159151
 In        16.4345266677       28.5420203773       34.4316602834
 In        16.4026292579       31.6234220875       13.4114795317
 In        16.4079139356       31.5681127659       19.4434972830
 In        16.4174149472       31.4940170862       25.4823347156
 In        16.4778809536       31.5644234497       31.5710809397
 In        16.2487756841       31.7121570493       37.1881196527
 In        16.4107767433       34.6122427581       16.4275467369
 In        16.4008342823       34.5296579668       22.4869951459
 In        16.4258390044       34.3974618291       28.5354261850
 In        16.3259714134       34.6304005887       34.6335559008
 In        16.4111040989       37.5823287115       19.5244344746
 In        16.4057501149       37.3303462606       25.6316066160
 In        16.2473788667       37.1874819528       31.7084938533
 In        19.2320751211        7.5685099364       10.3110834064
 In        19.3735434243        7.7228330760       16.4695251274
 In        19.4600126606        7.6663519807       22.4425256887
 In        19.4554422340        7.4180003997       28.5802524655
 In        19.2741719311       10.2999477001        7.5706851986
 In        19.5141793038       10.4776167752       13.4161282399
 In        19.4528410392       10.6196784239       19.5101569535
 In        19.3946448353       10.4662112919       25.5717650220
 In        19.4466144339       10.3975712961       31.5787731585
 In        19.4695019653       13.3690084525       10.4846154744
 In        19.5158950657       13.5054977457       16.4710038028
 In        19.4416894512       13.5095694220       22.5645142994
 In        19.3919341521       13.4291562593       28.5929658841
 In        19.4483979149       13.4310609109       34.6101308881
 In        19.3628040233       16.4069933459        7.7255892534
 In        19.5165967636       16.4235452586       13.5089442843
 In        19.4578421504       16.4857268613       19.5204363336
 In        19.4472226267       16.4761135275       25.5544761999
 In        19.3945992852       16.4191886889       31.5698286518
 In        19.4538769007       16.4801844020       37.5830892976
 In        19.4502674214       19.4602286220       10.6199146116
 In        19.4587903051       19.5039028891       16.4884564793
 In        19.4775249716       19.4784697438       22.5111071909
 In        19.4454500137       19.4514963932       28.5370853541
 In        19.3898490153       19.4486089868       34.5296398248
 In        19.4649498892       22.4230856266        7.6701051436
 In        19.4424307476       22.5218355193       13.5096280119
 In        19.4705243269       22.5061936440       19.4772411877
 In        19.4691846565       22.4960783990       25.5290606115
 In        19.4464755961       22.4847171721       31.4967698564
 In        19.4660645254       22.5770686537       37.3317510663
 In        19.3906493450       25.5574936812       10.4714430106
 In        19.4461470588       25.5513249220       16.4739399908
 In        19.4666885667       25.5324467273       22.5016119852
 In        19.4654355755       25.4875714930       28.5222144346
 In        19.4522118719       25.5465864381       34.3922565734
 In        19.4570353538       28.5252343660        7.4190094277
 In        19.3899971662       28.5900218686       13.4298170121
 In        19.4449370442       28.5293416574       19.4540473169
 In        19.4663527004       28.5149874435       25.5330607995
 In        19.5138127864       28.5678867615       31.5006144508
 In        19.3688310468       28.5923704400       37.3322382873
 In        19.4501366224       31.5699026822       10.3906759511
 In        19.3938440792       31.5686805481       16.4181576133
 In        19.4455209507       31.4931423980       22.4874882626
 In        19.5167112967       31.5010853762       28.5787177035
 In        19.5115936818       31.6268633007       34.5234079470
 In        19.4564849008       34.6118962976       13.4277201585
 In        19.3896852407       34.5278036576       19.4453932340
 In        19.4529833664       34.3937788162       25.5475208017
 In        19.4738134846       34.5260076236       31.6245232553
 In        19.2781348409       34.7028573210       37.4337386193
 In        19.4623963660       37.5793685169       16.4684043010
 In        19.4624236512       37.3294315876       22.5730188803
 In        19.3695141134       37.3267454333       28.5871281719
 In        19.2814594066       37.4326189745       34.6991177588
 In        22.4206275456        7.4234422171       13.3718402440
 In        22.4228647749        7.6713101724       19.5251521890
 In        22.5018987531        7.6653044383       25.4838394826
 In        22.5045831097        7.4271456909       31.6409243160
 In        22.4824451645       10.3995529912       10.4075802784
 In        22.5224079081       10.4701194505       16.4133518271
 In        22.4903827017       10.6132907530       22.5054646354
 In        22.4248596400       10.4725154177       28.5913922063
 In        22.4936416935       10.4593281843       34.6015390538
 In        22.4159250091       13.3608096200        7.4238730354
 In        22.5649692448       13.4265857732       13.4278778774
 In        22.5149503482       13.5089184977       19.4560105609
 In        22.4333053201       13.5018353737       25.5564548941
 In        22.4201619836       13.4380810110       31.5674251000
 In        22.5098366060       13.4289968006       37.5798427094
 In        22.5102667699       16.3995520297       10.4762330177
 In        22.5116713011       16.4751906888       16.4750251057
 In        22.4977260753       16.4817252880       22.5008757592
 In        22.4282089059       16.4732015672       28.5335823524
 In        22.4208668227       16.4204493071       34.5228392009
 In        22.4181714700       19.4649569733        7.6675749188
 In        22.5099769639       19.4505957502       13.5132837739
 In        22.4968615770       19.4683589819       19.4698175951
 In        22.4864904442       19.5118581337       25.5280348251
 In        22.4275588764       19.4553344847       31.4947655955
 In        22.5063913698       19.5310078782       37.3315549625
 In        22.4855788207       22.4956242979       10.6092423066
 In        22.4955125478       22.4988120577       16.4844385731
 In        22.4894014402       22.4997305994       22.5051249119
 In        22.4962535846       22.5052915560       28.5199852737
 In        22.4887976787       22.5099320601       34.3959957478
 In        22.5090324862       25.4718240853        7.6692214992
 In        22.4246957912       25.5521228124       13.5087755462
 In        22.4794735853       25.4898584273       19.5044485778
 In        22.4980401492       25.5309661276       25.5322429086
 In        22.5106277077       25.5536517032       31.4938239605
 In        22.4232093821       25.5327374082       37.3311376953
 In        22.4198996390       28.5861589838       10.4723493497
 In        22.4254473496       28.5285554656       16.4758996636
 In        22.4897601957       28.5202535330       22.5076471942
 In        22.5130428247       28.5264480409       28.5320461349
 In        22.5123284735       28.5977399388       34.5307613006
 In        22.5678922641       31.5676669643        7.4177400702
 In        22.4186891413       31.5639894529       13.4362452178
 In        22.4269652471       31.4932485526       19.4529823568
 In        22.5120108692       31.4944306304       25.5535252546
 In        22.5662178154       31.5796075019       31.5729597577
 In        22.4278966736       31.6360887082       37.5803259174
 In        22.5029219351       34.5423037989       10.3994968838
 In        22.4207867626       34.5262818570       16.4094545438
 In        22.4868149568       34.3886237283       22.5036425340
 In        22.5110715703       34.5326203542       28.5919753058
 In        22.4935538863       34.6004255901       34.5961312376
 In        22.5634285057       37.5648888485       13.3692262202
 In        22.5050976167       37.3284550794       19.5252925147
 In        22.4232505787       37.3305056620       25.4884542108
 In        22.4239502250       37.5780424998       31.6355560199
 In        25.4651722370        7.4176839436       16.4640746791
 In        25.4755026420        7.6670811135       22.5694051043
 In        25.5621699902        7.6733311085       28.5906567901
 In        25.6422630412        7.5717087986       34.7009121468
 In        25.5308649872       10.3857715120       13.4288778932
 In        25.5466809762       10.4757797632       19.4452362407
 In        25.4825068021       10.5694002069       25.5427029447
 In        25.4662627546       10.4804497795       31.6280607098
 In        25.6392217659       10.3163270364       37.4341952838
 In        25.5267724056       13.4147445871       10.3906862978
 In        25.5539539604       13.4316137770       16.4174321072
 In        25.5386769913       13.5058061029       22.4887901983
 In        25.4634507380       13.5045630768       28.5777648446
 In        25.4649300167       13.4259480071       34.5162999072
 In        25.4575585671       16.4027888439        7.4150198556
 In        25.5527896181       16.4106747821       13.4350885093
 In        25.5443215619       16.4581967358       19.4521760571
 In        25.4763379843       16.4839683517       25.5383330114
 In        25.4621714247       16.4738257530       31.4922721701
 In        25.5584438575       16.4777970463       37.2773205888
 In        25.5306578484       19.4039623525       10.4777380425
 In        25.5433515641       19.4535226713       16.4750797569
 In        25.4891796303       19.4667740056       22.4986479808
 In        25.4805806861       19.5194977866       28.5215183566
 In        25.4802396902       19.5219750132       34.3875528009
 In        25.4605652761       22.5134380293        7.6712856229
 In        25.5265724377       22.4800683660       13.5157051414
 In        25.4894003253       22.4940169661       19.5138623753
 In        25.5297951084       22.5075460039       25.4851526075
 In        25.5439503510       22.5717100820       31.4952472084
 In        25.4722951050       22.4875115277       37.3301831467
 In        25.4739412411       25.5348644381       10.6163789475
 In        25.4768139815       25.5361694113       16.4934217652
 In        25.4884455458       25.5242844053       22.5129424022
 In        25.5434451473       25.5529427598       28.5312572957
 In        25.5482869029       25.6044584405       34.5274042040
 In        25.6156736296       28.5206979788        7.7153940290
 In        25.4635887682       28.5735576540       13.5130224394
 In        25.4810394479       28.5185226593       19.5150897775
 In        25.5440727339       28.5330633296       25.5552322002
 In        25.5523571501       28.5908610172       31.5665040779
 In        25.4712435870       28.5887733667       37.5854461726
 In        25.4760704337       31.5749660016       10.4768914273
 In        25.4633171281       31.4896983860       16.4701462967
 In        25.5433794246       31.4909884897       22.5674004107
 In        25.5513912305       31.5705755757       28.5860109922
 In        25.5338151725       31.5782981269       34.6099365962
 In        25.7105121410       34.6829015953        7.5702824729
 In        25.4664407325       34.4666330003       13.3745916850
 In        25.4817171898       34.3821962419       19.5109767385
 In        25.5467263887       34.5297923628       25.5672752166
 In        25.5326232648       34.6112211338       31.5758981707
 In        25.7079963201       37.4181597251       10.3091627577
 In        25.5646797209       37.2678224347       16.4606919588
 In        25.4750429472       37.3328466425       22.4383109264
 In        25.4685462702       37.5831796605       28.5815726416
 In        28.5230794774        7.4184109562       19.4726596346
 In        28.5202918158        7.6703249139       25.6251387531
 In        28.6796364631        7.8160598677       31.7136429737
 In        28.5274114971       10.3890967855       16.4215285516
 In        28.5805140321       10.4676313624       22.4379824603
 In        28.5117040162       10.6030693830       28.5316155735
 In        28.5966884614       10.3795530097       34.6723208978
 In        28.5809798777       13.3721212500       13.3761951083
 In        28.5732071021       13.4286727499       19.4314310459
 In        28.5215946582       13.5011953040       25.4744714871
 In        28.4960600546       13.4331494089       31.5682309400
 In        28.6762746315       13.3457442757       37.1916269077
 In        28.5250597909       16.4123088172       10.3892013319
 In        28.5840875848       16.4036884073       16.4082670000
 In        28.5183243344       16.4736804552       22.4603975120
 In        28.5144396411       16.4791755175       28.5248072666
 In        28.5156209211       16.4781351927       34.3820628464
 In        28.4523081909       19.4497328747        7.4101336269
 In        28.5328455999       19.4322892557       13.4347021840
 In        28.5210419748       19.4496251882       19.4512921961
 In        28.5079512833       19.4731279099       25.5346604001
 In        28.5246908919       19.5353258908       31.4936436665
 In        28.5160352163       19.3882610975       37.2772136127
 In        28.5240820333       22.4374054473       10.4840669727
 In        28.5095679605       22.4764328936       16.4921940922
 In        28.5115840540       22.4979180929       22.5036540198
 In        28.5245130185       22.5687327901       28.5306971014
 In        28.5801678925       22.5750768482       34.5283027133
 In        28.5303285408       25.5524990857        7.7252878826
 In        28.5210462067       25.4774808029       13.5168303103
 In        28.5053391038       25.5247133651       19.5219276776
 In        28.5262856713       25.5500113804       25.5533489504
 In        28.5782206189       25.6055854818       31.5706919225
 In        28.5247704464       25.5386345012       37.5821090045
 In        28.5270977375       28.5233255763       10.6202239739
 In        28.5156107363       28.5194283909       16.4861325059
 In        28.5239346043       28.5305110015       22.5729351198
 In        28.5821291481       28.5963906370       28.5963850575
 In        28.5304781516       28.5876007829       34.6132320193
 In        28.7441137353       31.6544262324        7.8151186103
 In        28.5122410545       31.5604738899       13.4373040857
 In        28.5277238142       31.4853284011       19.5336571942
 In        28.5821123596       31.5691940800       25.6054888463
 In        28.5805442754       31.6232866737       31.6217626534
 In        28.6588548490       34.6138180540       10.3755564554
 In        28.5220162620       34.3758458679       16.4736940296
 In        28.5854883964       34.5272207785       22.5724008116
 In        28.5264766596       34.6137144108       28.5827185698
 In        28.6843194326       37.1261523648       13.3446304285
 In        28.5275603774       37.2694125255       19.3778183273
 In        28.5209099505       37.5804751450       25.5362772873
 In        31.5693750977        7.4171415309       22.5709418897
 In        31.6436498741        7.8097897334       28.7475843470
 In        31.5632912375       10.3874902387       19.4526463780
 In        31.5672324404       10.4748828563       25.4818713290
 In        31.4205507896       10.2353176847       31.4905383761
 In        31.5721587147       13.3711643964       16.4134090794
 In        31.5585336741       13.4252095124       22.4259014099
 In        31.5536227653       13.4254936677       28.5134464541
 In        31.4234394319       13.5164756671       34.7647402370
 In        31.5703765518       16.4027468222       13.3705237585
 In        31.5671492855       16.4078916215       19.4365864301
 In        31.4824733443       16.4213945363       25.4796925220
 In        31.5556144104       16.4892382903       31.5736661522
 In        31.6450956441       16.2577363746       37.1912545070
 In        31.4960687764       19.4485001607       10.3887352816
 In        31.5628236880       19.3859764850       16.4142060705
 In        31.4874022010       19.4480348909       22.4895263216
 In        31.4840792506       19.5277129240       28.5803355721
 In        31.5704507479       19.5239810598       34.5197597658
 In        31.5562430478       22.4360655027        7.4750871610
 In        31.4866685623       22.4348617198       13.5068498032
 In        31.4825144956       22.4334298385       19.4623261989
 In        31.4882429257       22.5161189872       25.5561567835
 In        31.5572056090       22.5793264354       31.5714232380
 In        31.5671183324       22.4307107778       37.5816424508
 In        31.5612106361       25.4737249985       10.5354396311
 In        31.4801080330       25.4758647824       16.4801511184
 In        31.4913514197       25.5463904382       22.5737398104
 In        31.5669279195       25.6027401833       28.5943895233
 In        31.5646930598       25.5481904824       34.6128782616
 In        31.6618596582       28.6812812178        7.8240702693
 In        31.5573058377       28.5105588822       13.4428819495
 In        31.4885441938       28.5400294138       19.5352564542
 In        31.5702311928       28.5895843912       25.6075264181
 In        31.5752767061       28.5945824434       31.6294656562
 In        31.4823346287       31.4761310517       10.2399599272
 In        31.5612591477       31.5597796911       16.4896149900
 In        31.5622626338       31.5610636536       22.5760647550
 In        31.5772533785       31.6282019542       28.5952629606
 In        31.4797512565       34.7551353214       13.5182817463
 In        31.5879753804       34.4791128619       19.5221459878
 In        31.5660379796       34.6110387672       25.5465195951
 In        31.6570318949       37.1753393181       16.2584400371
 In        31.5732431228       37.5717771075       22.4250446200
 In        34.6806698663        7.5656561316       25.7107835875
 In        34.5427452944       10.3961557039       22.5055750684
 In        34.6063804740       10.3232197376       28.6742300527
 In        34.6038838619       13.4256407689       19.4576300641
 In        34.4678310216       13.3595520309       25.4861622285
 In        34.6960902178       13.5066400234       31.4942002211
 In        34.6037106014       16.4054361202       16.4255360716
 In        34.5249708199       16.4019795851       22.4833704060
 In        34.3758710465       16.4604821127       28.5449835647
 In        34.6074299700       16.3290493594       34.6759883748
 In        34.6036228486       19.4468309066       13.4443212133
 In        34.5266651884       19.3873748934       19.4552520418
 In        34.3800437889       19.4597151320       25.5469954588
 In        34.4665913580       19.5213859774       31.6377834702
 In        34.6804016347       19.2911418085       37.4328939590
 In        34.2822218754       22.7277380266       10.7120480841
 In        34.4786531905       22.4264566567       16.4680894867
 In        34.3909947699       22.4920558442       22.5113918200
 In        34.5216720908       22.5599191506       28.5987271756
 In        34.5423502869       22.4967077101       34.6032403420
 In        34.6980230575       25.7076344223        7.5804623974
 In        34.4643080833       25.4741027119       13.4368207315
 In        34.3833034605       25.4895924722       19.5239163683
 In        34.5276207747       25.5562441619       25.6072188851
 In        34.6032755893       25.5469770708       31.5792749421
 In        34.6125081874       28.6620879033       10.3872711898
 In        34.3780305658       28.5217191486       16.4749266428
 In        34.5262331335       28.5841931423       22.5758282635
 In        34.6057505362       28.5866265890       28.5921979194
 In        34.7597648128       31.4756839819       13.5183736016
 In        34.5170008815       31.5794555788       19.5239347269
 In        34.6083852539       31.5685035196       25.5485036187
 In        34.6170494597       34.6151483682       16.3425617012
 In        34.5514844397       34.5569257459       22.4905928948
 In        34.6814211980       37.4188081324       19.2919546010
 In        37.4189037062       10.3042515850       25.7167611422
 In        37.5683257860       13.3567594461       22.5815910628
 In        37.1195684699       13.2851594153       28.7532572086
 In        37.5814282808       16.4046310706       19.5327606930
 In        37.2745432791       16.4021566465       25.6357477827
 In        37.1194094973       16.2477530880       31.7146896052
 In        37.5782488266       19.4457043862       16.4947985738