     691
 i =       88, E =    -19059.2491835367
 Cd        19.8785998212       26.3985332178       19.8300849335
 Cd        23.2002018250       29.6363523493       19.8962494201
 Cd        26.5599309788       32.7372323658       19.7637100961
 Cd        29.6637788618       36.1606892225       19.7031457646
 Cl        27.4722987946        5.1791099813       18.8237770483
 Cd        36.5656210281       22.5553585522       29.9248765895
 Cd         7.8691340818       12.8017009972       20.8138301995
 Cd        10.0854150241       16.9004315069       19.8023986210
 Cd        13.4155012081       19.9716539646       19.9365707161
 Cd        16.5880383631       23.1889607387       19.8567194825
 Cd        23.1615794971       26.3727179961       23.1976724724
 Cd        26.4125923393       29.6813744904       23.2390631007
 Cd        29.6456360522       33.0141022467       23.2654018929
 Cd        31.3730849937       36.1557721455       22.4245165487
 Cd        23.8134467620       29.1508470000        6.8476200525
 Cd        16.4559877127       13.3465795722       16.7230768401
 Cl        37.6519461113       18.7102407875       15.3911311768
 Cd        10.1264752326       13.3759750503       23.2381561828
 Cd        13.3040862793       16.5656697931       23.1971682430
 Cd        16.5619631949       19.8753303391       23.2420977212
 Cd        19.8360063578       23.1193861558       23.1805066219
 Cd        26.4440153244       26.4298126043       26.5121149841
 Cd        29.6911344305       29.8499462357       26.6674289693
 Cl        18.4236869204       37.5100096869       21.6701857907
 Cd        19.8392789622       16.5875780312       16.5505707750
 Cd        13.4838428908       19.8329252300       13.2761093559
 Cl        21.5389109565       18.1633429979       37.4074831255
 Cd        13.3727793506       13.1552636240       26.6298612632
 Cd        16.5435578981       16.5659344150       26.5192224939
 Cd        19.8236544567       19.8752948515       26.4725501592
 Cd        23.1618568084       23.1304653764       26.4770635438
 Cd        29.7904988055       26.4989516068       29.8157023464
 Cd        31.7366750391       30.3199955420       30.3734401353
 Cd        12.7298103440       35.1196390537       22.2003657566
 Cd        35.9311541897       25.9533014766       28.7004103825
 Cd        23.0865225681       13.4471560059       23.0483064826
 Cd        13.7713935299       10.2111185822       29.7941766892
 Cd        16.5834507285       13.2931032683       29.8520246602
 Cd        19.9054134383       16.6144104736       29.6977771837
 Cd        23.1574715662       19.8656855481       29.6900037890
 Cd        26.4767946089       23.1455578974       29.7673086190
 Cl        20.5219372172       12.4248238642        5.4104253182
 Cd        29.8461395628       13.3479262447       16.3761210325
 Cd        26.3826461356       16.6291542261       23.0934017213
 Cd        32.8354212298       19.6321813873       26.3785223592
 Cd        26.3686635200       19.8674246029       19.8736042029
 Cd        22.6376650358        7.0117874799       16.8783808194
 Cd        26.4946482527        9.9789448377       16.6181537272
 Cl        37.5189389937       15.5336453181       18.3801567871
 Cd        19.8915779664       13.2789864829       33.0649875501
 Cd        23.2589989183       16.4713023504       32.7881804014
 Cd        26.3605699190       19.6533688676       32.8593430683
 Cd        29.9204142587       23.0664676390       32.8884659850
 Cd        23.2100917755       23.2069510755        6.9234966121
 Cd        36.0981453014       29.0491206684       25.0472416478
 Cd        23.4261703937       13.3942550610       36.1578957444
 Cd        26.6711221544       16.5575223622       36.0711105579
 Cd        29.0107220193       18.9768827367       36.2457997328
 Cd        30.0215791016       22.5385398175       36.4791611514
 Cd        23.1579257532       10.0952658169       13.2100241254
 Cd        23.1050677215       19.9302217602       10.1307052260
 Cd        13.3789696686       10.0003912459       23.2458046521
 Cd        29.4727664580       23.5463039213        6.8442914049
 Cd        32.9421744375       29.5121846487       16.8287291106
 Cd        16.4836294169       19.7756099899       10.2599824219
 Cl        14.8785505832       18.9636797848       37.3584486115
 Cd        26.4990637795       13.2571449463       13.2342948945
 Cd        19.8811274658       23.1560926932       10.0771224819
 Cd        13.0739572315       13.5867426497       13.5610780917
 Cl        15.5056042937       24.4500335781        5.3461151485
 Cd        23.1135978013       16.6240803714       19.8074957613
 Cd        26.3815581742       16.6411978450       10.0754949675
 Cd        26.3042155755       16.4970992387       29.6991660286
 Cd        32.9349819574       23.2725538555       16.8854669412
 Cl        37.6500538470       20.4566855556       30.5419008752
 Cd        16.7321017724       10.0271450599       26.4521656931
 Cd        33.0020889520       13.3707025157       19.7708687953
 Cd        36.1281587959       16.7202502840       20.1762378511
 Cd        19.8504677180       19.8946688758       19.8838896818
 Cd        16.5306069626        7.0047861574       16.3366848910
 Cd        14.2056207310        7.0918779665       25.9544191441
 Cd        16.4806260624       16.7383089771       13.3191817896
 Cd        19.0254536224       14.0009235519        6.7956302586
 Cd        10.0610733004       13.5467990822       16.8120420453
 Cd        16.5997916756       16.6435449414       19.9196086327
 Cd        29.4660632990       23.2772186014       13.3114257149
 Cl        37.5317500064       24.0090396903       27.8551959281
 Cd        29.5231549928       29.7176297227       19.8823390455
 Cd        32.9705744377       16.7972616331       16.6243792777
 Cd        29.6356041836       19.8358931561       23.1962377302
 Cd        20.0118479933       13.2102456097       13.2594144812
 Cd        29.6661937781       19.9703148985        9.9595930894
 Cd        16.8194061736       22.8620956542        6.8541314721
 Cl        11.7929502721       10.1340540186       31.5622010983
 Cd        13.2994247526       30.6001163522       10.5007657539
 Cl        38.0064806713       13.0583576842       21.5523912520
 Cd        20.4445972613       36.5485666600       13.0904667852
 Cd        13.3286455165       16.6920134447       16.6750098975
 Cd        22.9809781549       29.8198231358       13.2195461363
 Cd        26.7330888647       32.6465287381       13.4586289129
 Cd        23.1081661245       23.1579359367       19.8881626819
 Cl         6.2833398880       28.6177828012       25.6583146581
 Cd        13.3083890683       26.7005225385       13.0376566148
 Cd        16.5853573837       29.8373306818       13.3205087839
 Cd        19.9162483977       32.9033642891       13.1889737215
 Cd        24.0553027353       36.2975263842       14.0825376659
 Cd         7.8458399341       20.8366584585       12.8025543063
 Cd        10.1226662381       23.2264471370       13.3466590438
 Cd        16.5580687856       26.4862136346       16.5531309788
 Cd        19.9053723153       29.7150008887       16.6177562429
 Cd        23.3856301270       32.8495339384       16.6545551795
 Cd        26.5076968559       36.0308177376       16.3968051535
 Cd        36.0124795220       23.1993916275       19.7780436347
 Cl         5.3525519649       22.4534765260       30.5796780692
 Cd        10.0846023782       19.8164063647       16.8889722669
 Cd        13.2924775661       23.2158302840       16.4990266350
 Cd        19.9181779914       29.5606816264       23.1023452212
 Cd        23.1261252872       32.8574661502       23.0819169163
 Cd        26.2910684925       36.1332104001       22.8687962717
 Cd        36.0057741824       22.6378113967       26.1338245551
 Cd         6.7984175892       17.0307427230       22.9342891498
 Cd        10.1311998754       19.9544785712       23.1742595270
 Cd        13.3405622372       23.1466460273       23.2353757733
 Cd        16.5944670615       26.3735049182       23.1184049620
 Cd        23.0780429221       29.6454044915       26.4397945288
 Cd        26.2264868182       32.9708972919       26.4271666392
 Cd        28.8228307256       35.8961558097       25.9549123289
 Cd        29.7593032500       23.1982755118       26.5109253304
 Cd        10.3728790117       10.1740800774       19.7970479851
 Cd         6.9351461089       13.9416395330       25.0247187067
 Cd         9.9989112353       16.4725967713       26.4465039947
 Cd        13.2182815756       19.7037364790       26.5879849510
 Cd        16.5042286398       23.1344983568       26.4979944991
 Cd        19.8419423080       26.3480245104       26.4143034515
 Cd        26.3886480152       29.6599046475       29.8601474575
 Cd        28.9534705391       32.6648187307       29.5636314923
 Cd        26.4251874688       16.5970297186       16.5492569550
 Cd        19.9121062332       10.1556264876       29.6284561087
 Cd        11.4591641321       12.3706692207       30.3662024350
 Cd        13.1978978853       16.2319375099       30.0514920656
 Cd        16.4895794010       19.8423740747       29.7241300391
 Cd        19.8181237698       23.1086824763       29.6979716437
 Cd        23.0940407552       26.3575346571       29.7156882769
 Cd        29.4950725152       29.7986389946       32.6364337313
 Cl        12.3519476701       22.6225024490       37.6330316540
 Cd        26.4505233721       13.3242159215       19.8068600073
 Cd        32.9452674916       26.3015711463       13.5905809865
 Cd        14.0004181761       13.0139082219       33.1797177845
 Cd        16.7609789915       16.8190463749       32.8558866708
 Cd        19.9248345890       19.9099342959       32.9493413546
 Cd        23.0987078010       23.1066333791       32.9415736897
 Cd        26.3920863913       26.3661621579       32.9747603675
 Cd        33.0530852765       26.5023715310       26.4255978600
 Cd        23.1894476266        6.9972996903       23.2381506576
 Cd        26.1146318931       10.0778167431       23.1934165707
 Cd        16.8802817624       13.3067177830       35.8892887119
 Cd        19.9650307632       16.5407386026       36.1778833309
 Cd        23.1001673175       19.6965418090       36.1415080209
 Cd        26.1387523406       22.7064332693       35.9917771533
 Cd        29.1519898481       25.9367710125       35.6840761761
 Cd         6.7525870314       31.2543627885       20.6973134388
 Cl        37.8433688248       27.4746184025       24.1906222379
 Cd         6.8335452689       29.5933671025       23.4367677407
 Cd        10.1133005225       32.5842790808       23.2185323113
 Cd        29.6661148691       16.6491043929       13.1948841752
 Cd        32.8258708546       19.9466367662       13.3768871997
 Cd        26.3600929164       19.9273483314       13.3272546111
 Cd        26.2331250873       10.0235278085       29.4427062245
 Cd        26.2075486179       20.1850621849        6.8800349228
 Cd        16.6186735759       13.3331178922       23.1879714941
 Cd        35.1167196712       22.2839283682       12.7371461790
 Cd        26.2920250376       26.8190249499        6.9791608915
 Cd        32.5932610918       16.2444454393       29.5876558992
 Cd        36.2435809301       25.9683344550       22.9300320404
 Cd        32.6546889720       32.8473871712       19.8361367501
 Cl        31.6464165333       11.6380112915       10.5102303561
 Cd        22.7835311328       16.8493255624        7.0750086686
 Cd        25.9559604935        6.7730684357       20.0807615530
 Cd        29.6394115804       10.1127575196       19.7659556369
 Cd        36.1483972491       13.3490384461       23.3439586600
 Cd        29.8209045646       20.0065979924       29.7947497618
 Cd        29.4536209826       13.0727903489       29.4503476140
 Cd        29.7079675203       13.4876982005       23.1674857367
 Cd        36.0026683735       16.4984507824       26.6646603195
 Cd        26.4798502323       23.3532236420       10.2585485168
 Cd        29.5732502465       23.1082341888       19.9853925816
 Cd        32.5653263531       23.4793596007       10.1907986585
 Cl        18.3278168517       21.6127822993       37.4428176940
 Cd        17.8995357604        7.0835714557       29.1952828860
 Cd        32.9453815252       26.1338946528       19.8188972310
 Cd        36.1974654261       20.0849280937       16.9596884697
 Cd        11.0500113713       30.2503746073       13.1243753944
 Cd        13.4513635725       32.6336449353       13.7082897068
 Cd        17.0412871686       35.7618976049       14.1788077136
 Cd        32.8496754232       19.8938302259       19.9851988504
 Cd        23.1077767657       19.8803845387       16.5805086912
 Cd         6.9720087972       25.0962054011       13.9406810186
 Cd        13.2038078833       29.6754829370       16.5532672506
 Cd        16.6359403908       32.9589344144       16.7099947202
 Cd        20.3545585526       35.9957042325       16.8925913727
 Cd        29.4716120455       10.0562287691       26.1980762397
 Cd         6.7907663651       22.9404266593       17.0222884485
 Cd         9.9339389804       26.3402765669       16.4861362595
 Cd        16.6185379876       29.6665819277       19.9080709398
 Cd        19.9823998275       32.8807481388       19.9144916614
 Cd        23.2591704773       36.1009749579       19.8835415684
 Cd         7.0120054684       19.8121961447       19.8013395799
 Cd        10.1409836671       23.1744890868       19.9658972264
 Cd        13.2918217908       26.3932390196       19.8348705064
 Cd        19.7473864589       32.9433464635       26.1733517387
 Cd        22.9257814557       36.2113382141       26.0843434918
 Cd        32.8867265425       23.0550814142       23.1674050356
 Cd         7.0105473159       20.3150148065       26.1502302485
 Cd        10.1646483041       23.3251238680       26.4153971103
 Cd        13.2987736002       26.5371504599       26.3383063742
 Cd        16.6334534734       29.6730371865       26.3519152078
 Cd        23.0856516876       32.8276877464       29.6669886506
 Cd        25.0449587238       35.8985573052       29.2496743091
 Cd        23.1351733688       16.5764586796       13.3030990426
 Cd        19.8390565732       23.2034806525       16.5684608073
 Cd        23.2277153900       26.4400433970       10.1468758606
 Cd         7.0953183831       16.9786311422       28.7076901212
 Cd        10.0621538863       19.7766888507       29.8525527937
 Cd        13.1491663455       22.9685259197       29.7989119753
 Cd        16.6593325865       26.4993247507       29.7209448927
 Cd        19.7427409775       29.4680461010       29.7347248527
 Cl        24.2121097728       14.9610693688        5.7510251733
 Cd        22.5820993626       12.9795092432        6.5951559097
 Cd        25.9745718051       13.8488642692        7.3956316844
 Cl        21.6163680433        5.5073145557       24.5878507850
 Cd        13.0605540565       19.9421166459       32.8783012840
 Cd        16.6126038125       23.3221758044       32.8447276246
 Cd        19.7041701463       26.5040273242       32.7899246531
 Cd        23.0860576272       29.6747143417       33.0790246069
 Cd        29.1221463770       17.4483345306        7.0297064821
 Cd        31.4613752933       21.0341868004        6.8403664596
 Cd        23.2443197165       13.5108463331       29.7138754054
 Cd        13.7638911129       17.1857039613       35.6745897044
 Cd        16.7962130571       20.2582639757       35.9964164405
 Cd        19.8008766539       23.1958392274       36.1328648855
 Cd        22.8524635743       26.1975906880       36.1626274482
 Cd        25.5888525466       29.1171299261       36.0043540315
 Cd        13.3714221091        6.8567490834       19.6340804011
 Cd        19.8186526900       19.8245544590        6.9262114047
 Cl        14.3826789459        6.2496734157       17.4401484549
 Cd        19.8144119159       26.5223347538       13.2859699521
 Cd        23.1571180219       26.4735039348       16.5636333918
 Cd        18.9609119110        6.7867548731       13.9923896706
 Cd        26.3876370274       26.3965350602       19.9400365285
 Cd        16.4437882539       10.2796121605       19.7342203406
 Cl        11.5286070113       32.3400962602       11.5586375705
 Cd        29.7025125758       26.4628596501       23.2351569358
 Cd        10.0292243779       16.8043693020       13.5745244706
 Cd        19.7453354883        6.9223579194       19.8590918850
 Cd        29.8125131955       13.5578229976       10.4222495820
 Cl        24.5302410451        5.4963861115       21.6437993100
 Cd        26.3568181918       13.3356989019       26.3286829187
 Cd        26.3539069714       23.1630522556       16.6393451227
 Cl        21.3736749336       37.5041788850       24.6452304089
 Cd        29.6840867668       16.4625043697       26.2960758327
 Cd        20.0673470606        6.8029659399       26.0445946239
 Cd        19.6385213303       10.1812432733       16.6383961255
 Cd        19.8205101275       16.6363120032       23.1778757443
 Cl        21.6112036972       24.5676348409        5.5530305427
 Cd        20.2282048061       26.2068389989        6.8527980435
 Cd        36.2409223154       18.9411487248       28.9959838567
 Cd        26.5384857840       29.7050538697       16.7341451433
 Cd        23.3996347898       10.3747156794       32.8127193385
 Cd        22.5837783585        6.4787482769       13.0778303419
 Cl        18.2323440730        5.5492475565       21.3365356206
 Cd        30.3201675313       11.3067281143       12.6730719490
 Cd        32.6715665508       14.0855650501       13.4731150686
 Cd        35.8968540467       17.9873172257       13.7863697092
 Cd        36.0925269232       19.7430907237       23.1650187193
 Cl        19.2728529208       27.8891618294        5.1929216199
 Cd        29.5535133591       16.2685545392       32.6147770039
 Cl         5.4898695055       18.9328945962       27.8660403780
 Cd        13.8687877122       35.9520382188       17.9393001742
 Cd        29.6694521802       26.3766343607       16.7086956491
 Cd        29.6486549982       19.9510597530       16.6232979634
 Cd        23.0781173333       13.1324832684       10.1816508687
 Cd        32.9147123989       29.6442274365       23.2551266858
 Cd        23.2484910102       10.0687507506       26.1226399903
 Cd         6.9142829100       28.6221865224       17.1257553737
 Cd        13.3702823756       32.8270038636       19.8528732239
 Cd        16.9835697892       36.2227601383       20.1169019996
 Cd        23.1305227912       19.9006646010       23.1734229250
 Cd        23.1918643235       13.2949518495       16.5391104529
 Cd        30.1975132277        7.8524650725       22.1797833484
 Cd        32.8242997478       10.3513684365       23.2001743338
 Cd        16.2949554103       13.4526434727       10.4277700610
 Cd         6.8471275912       26.2384786078       20.2292767519
 Cd         9.8998443356       29.5908491154       19.7703804423
 Cd        16.8662971912       32.9524716816       23.2587835687
 Cd        19.7894548301       36.0253338727       23.2614836382
 Cl        24.5976022284       21.3618817649       37.4054085943
 Cd        13.3162111602       23.1835147771        9.9409129565
 Cd         6.9245188789       23.2280018316       23.1960626996
 Cd        10.2590838865       26.5426956317       23.3303068899
 Cd        13.2639194279       29.4992233088       23.1814057096
 Cd        20.7593904379       35.1237015452       30.3193973982
 Cd        25.9636937611        7.1101699076       14.3258745082
 Cl        15.5144146810        5.4743362748       24.6000322208
 Cd        35.8964549135       14.1920814565       17.0869051500
 Cd        16.6566176871       26.4333738457        9.9636158968
 Cd         6.7628330809       23.9772439631       29.0487841025
 Cd        10.3661718187       26.7237063075       29.6230555545
 Cd        13.5095739196       29.9219833755       29.4758873501
 Cd        16.7219346546       32.9542825589       29.4659044107
 Cl         5.5667749102       21.6358073390       24.6267839269
 Cd        32.9546958111       23.1429500829       29.8367117090
 Cd        22.2283387902        7.8409436149       30.2567229546
 Cd         6.4444975658       20.3628054020       29.9427931569
 Cl        28.6648229509       36.7663913119       17.5119320405
 Cd        13.4323410765       26.7386727814       32.6185774362
 Cl        20.4887345325        5.4021207845       12.4347591795
 Cd        19.5892128668       32.5846824850       32.8572361775
 Cd        16.7162329963        6.8805919926       22.8406331180
 Cd        11.4647016053       22.0752244366        6.8316574549
 Cd        12.8969817455       20.5375725907       36.4875908780
 Cd        13.9709279250       24.0420242105       36.2355811246
 Cd        16.3199982065       26.4260045770       36.0671045633
 Cd        19.5849402126       29.5422878195       36.2280926905
 Cd        13.9895033271       25.6077463072        6.9128803938
 Cd        19.8320246112       19.9130823792       13.3362244544
 Cd         6.9903698738       26.4352850347       26.7310375405
 Cd        13.4845178171       13.3025253048       19.8478617656
 Cd        29.0450316015        6.9327907125       17.9866828464
 Cd        36.1453664928       11.6361549895       20.6245232373
 Cd        19.8671454579       29.9268185392       10.0779835664
 Cl        25.5642128237       14.4585133008       36.8923300209
 Cd        13.4845616042       32.9414616254       26.2021607489
 Cd        19.8444776986       10.1543063968       23.0601485339
 Cd        13.4564794295       19.5886228379        6.8671270299
 Cd        26.4139011480       23.1517707352       23.2405356858
 Cd        35.1743935906       30.2279405186       20.8470325695
 Cd        23.1036603696       23.2029953352       13.3520330117
 Cd        29.8848880887       29.5125754597       13.5667223265
 Cd        16.2508755943       10.4257965485       13.4396846025
 Cd        19.6700791299       16.6500763929       10.1998419426
 Cd        10.3678950280       19.6669839420       10.2081230348
 Cd        16.5561696765       23.2125129382       13.2971005666
 Cd        16.6122656277       19.9236409428       16.6188665520
 Cd        19.8287978619       13.3858969157       19.8248353681
 Cd        19.9209914547       13.3438053311       26.4103153840
 Cd        23.1368696513       16.6483779121       26.3819243067
 Cd        26.4685590587       19.8751494362       26.4888365880
 Cd        29.6757637273       16.6198312336       19.8208780133
 Cd        16.6047573065       16.3328715688        6.9958608164
 Cd        16.1019338818       30.0693604196        7.8026373264
 Cd        26.4956234137       26.3572948728       13.3149320497
 Cd        23.0289728207       10.1324056187       19.8682364274
 Cd        32.7285169151       16.4507233059       23.2736273335
 Cd        26.6627928423       29.6349662361       10.4048592118
 Cl        24.0238562433        5.4996914991       15.1495135846
 Cd        20.1066831471       29.9155453517        6.3736814288
 Cd        11.6810887993        6.8464350315       22.3615226833
 Cd        22.0741589359       31.5436257447       36.1995309317
 Cd        20.9185230904       11.4119515975       36.1480954740
 Cl        37.5174671429       24.5313824993       21.3686175795
 Te        31.5183633725       15.4970610559       11.4375333687
 Cl        15.7981497157       24.6923163508       37.8671819264
 Cl        31.4148651958       31.6337778174       32.5447667265
 Te        35.2777359221       31.1926398988       23.5466070448
 Te        31.1671987460       21.5908317882       11.7337388444
 Te        11.7708709929       35.1573381941       19.4796347993
 Te        18.2121349952       24.8513574500       14.9257607156
 Te        27.9443454093       11.7566063804       24.6158893221
 Te        21.4855838905       21.5387961860       14.9587519810
 Te         8.4449393477       18.3160437991       11.7392223444
 Te        14.9188295824       18.2099027221       24.8705080200
 Te        31.3723395211       15.0273402048       18.1419577413
 Te        24.7024263063       11.7861259521       21.4215134776
 Te        31.2438174023       24.7206648735       21.6019247485
 Te        18.1943603689       21.5315390057       24.8601917221
 Te        19.5347311737        7.8483368424       31.2479680625
 Te        18.2652277238        8.4285428354       24.6344464101
 Te        15.0248752261       21.3860365134        8.4296314910
 Te        18.2120349108       18.2966391889       21.5547726947
 Te        21.4490841546       11.7341109084       18.1585009974
 Te        24.8536163306       31.1939866116       14.9506051569
 Te        11.6186641885       34.4808195818       24.6692383586
 Te        31.2596513882       11.8283840024       21.3966574107
 Te        21.5192395308       24.7329388476       24.8134726926
 Te        18.3256012516       31.2447707252       27.9726078566
 Te        13.6164527514       26.6520561263       35.3652979057
 Te        24.8242901400       28.0308297905       18.2478903786
 Te        11.9299059221        8.0769515067       24.7790461244
 Te        31.1847633981       18.1480419597       28.0807319416
 Te        31.2952002609       21.4516120974       24.8624678946
 Te        15.0245341633       28.0923161107       28.0081406191
 Te         8.5059039948       11.6895301188       18.3366047273
 Cl         5.2184070643       24.1438012560       15.4581869473
 Te        27.9627741766       21.7145192729        8.4350665209
 Te        24.6210176034        8.4305863840       18.2247646201
 Te        18.2511110035       21.5618722504       18.2407949479
 Te        18.3276222848       31.2579667285       21.5082483257
 Te        18.2205406262       14.9914369062       24.8376197601
 Te        11.8044340009       21.5489151275       11.7177620196
 Te        31.2619503286       18.1886173883       21.5680553948
 Te        14.9241360299       15.0696418342       15.0368938266
 Te        28.0785852924       14.9838813658       14.8603195033
 Te        18.0733036570        8.4827663177       18.2090827766
 Te        28.2924732735       31.4110275583       18.0631489440
 Te        28.0655089527       28.0794888623       28.1927897582
 Te        11.7635441698       18.3826191799       15.0662438942
 Te        31.3387355208       18.6068535723        8.0690401135
 Te        14.4543341111       11.8452973195       11.8122269662
 Te        18.2443427703       28.0703116481       18.2191134508
 Te        21.5054066208       11.7745017270       24.6670802830
 Te        24.7881378807       14.9648468175       18.1853934153
 Te        21.6143310400       31.3087804393       18.2360172806
 Te        24.7391259335       24.7083776707       34.6325431078
 Te        21.4675799499        8.4437337064       21.4922126526
 Te        28.0845003843       24.7981166824       24.8709916730
 Te        14.9619181103       28.0060054848       21.4813972742
 Te        15.0489797705       11.6384735071       24.8413104527
 Te        21.5645384752       11.8190595227       31.2581951153
 Te        24.9494117055       34.5439017864       18.2522842474
 Te        28.0123229210       18.3401858725       11.6152572097
 Te        27.9022955805       28.1555534595       34.7332442972
 Te        11.6016345106       18.0078242154       28.2477288837
 Te         7.8491137892       18.3061890312       30.9875387748
 Te        24.7785949478       24.7387420633       21.5619566328
 Cl         5.5263260202       24.7325931980       21.7421817239
 Te        23.5214774504       10.6528431700       35.5214835605
 Te        27.5592320511       31.5057771005       31.6120874911
 Te        14.9388851814       28.1448948422       14.9016561492
 Te         8.4492118671       18.3489863448       24.8126178278
 Te        34.8487671105       15.5025157650       14.8134522155
 Te        25.0083360807       14.7834956458       31.4421382801
 Te        24.8574095803       24.8696500428        8.4764921773
 Te        15.2642489064       15.2542814161       34.6065796382
 Te        27.9735596752       21.4593830891       21.5911482216
 Te        24.6780780993       11.7608766660       27.9317237317
 Te        11.6003524831       18.6628948167       35.0307960226
 Te        28.1086919633       21.2458418925       34.6165153660
 Te        18.2150483172       28.1737563737       11.6190737569
 Te        24.7887230525       18.2390657692       28.0577345774
 Te        18.2078880858       21.5329460172       11.6945055069
 Te         7.9170431112       30.9501668165       18.2594714319
 Te        15.2993284349       34.4086769967       21.4300749842
 Te        21.5255008060       14.9330187266       14.9362671413
 Te        31.2410961112       24.6947733585       15.0840655663
 Te         8.4246894894       24.7672339628       18.3959831849
 Te        21.5134676130       21.5136779172        8.4342245539
 Te        19.5010277978       32.2969730199       35.5750902372
 Te        14.8672807782       21.7783265648       34.6115343603
 Te        31.3157698651        8.4866229156       24.6538684543
 Te        18.3133961266       31.4381120176       15.0183339212
 Te        24.7304878104       18.3049646731        8.4369441063
 Te         8.4600697482       21.5374445984       21.5459245901
 Cl        13.0837999227        4.9830669666       21.4009010493
 Te        11.8338738345       11.7465183014       21.6051527984
 Te        11.3703869693       21.6296591549       31.4792760365
 Te         7.7621163916       23.5275404204       11.8163373076
 Te        34.5989448529       24.6342528223       24.7998318087
 Te        31.1599976474       31.7807860586       28.1659142531
 Te        11.7696525498       14.8797904149       24.9215331645
 Te        31.3050021397       24.4403012563       35.0314826582