      35
 i =        8, E =      -908.6986299133
 Hg        10.2044082534       15.3058529440       10.2135341304
 Hg        10.2231737400        7.6884247241       12.7907910287
 Hg        13.0736559281       13.0819772116        9.9161613098
 Hg        15.3088768325       12.7945120331       12.7794405768
 Hg         7.6851139959       12.7779031480       10.2176598643
 Hg        12.7804841123       15.3126970048       12.7822749643
 Hg        12.7829981066       10.2139303247        7.6881429829
 Hg         7.6947301668       10.2075151169       12.7921160160
 Hg         9.9199626755       13.0762288639       13.0801377410
 Hg        13.0840617143        9.9261018135       13.0768387278
 Hg        10.2051444161       12.7804993101        7.6905086637
 Hg        10.2216061121       10.2133971904       15.3131994156
 Hg        12.7885760291       12.7904104846       15.3074236002
 Hg         9.9203706227        9.9152526028        9.9231870079
 Hg        12.7916813348        7.6926776906       10.2144098538
 Hg        15.3103649332       10.2209434334       10.2084586505
  S        11.4994492355       11.4997772842       11.4989456325
  S        11.3672050631       14.6100125250       14.6068269492
  S         8.3953912680       11.6261020177       14.6136534779
  S        11.6422210243        8.3942197911       14.6101846227
  S        11.6185350941       14.6069745252        8.3879498046
  S        11.3710810938        8.3886978025        8.3927592155
  S         8.3847408667       14.6018228210       11.6331830999
  S        14.6036319489       11.6351611428        8.3856187224
  S        14.6016694983       14.6149452198       11.3620974430
  S        14.6137273773       11.3778559327       14.6041146268
  S         8.3968287324        8.3841434800       11.3764108393
  S        14.6154544072        8.3981377259       11.6277920520
  S         8.3861934688       11.3602932590        8.3955491377
 Cl        11.4912052764       11.4963535212        5.8277857792
 Cl         5.8284447168       11.4877048903       11.5083010238
 Cl        11.5113176194        5.8291218361       11.5030428924
 Cl        11.4881001289       17.1708296798       11.4958443182
 Cl        17.1711679072       11.5119352562       11.4911422331
 Cl        11.5083676249       11.5037394823       17.1720493168
