     935
 i =      364, E =    -17505.0060229766
 Cl         9.4623509826        7.0721308785        9.8154643454
 Cl         7.8555984745       11.6639244299       13.5859700798
  H         8.0131604336       12.6619461417       10.1457543768
  H         9.3291870667       12.8704112956       16.7513843735
  H         8.1671952299       18.5336980787       15.8000395494
  H         9.2896653138       19.7274359358       23.3408077473
 Cl         7.8486423547       22.0392328785       20.1732737140
 Cl         7.7825053700       23.1940831551       24.6269935879
 Cl         7.7987113149       27.6665777178       25.8407867402
 Cl         7.8214707899       28.6614088462       30.4170818855
  H         9.3367928226       32.1243639698       28.2464015781
  H         8.5698139235       31.7600349683       35.0713780084
 Cl         7.7351982428       33.1124418929       31.4995672847
 Cl         7.7685306934       33.7413042189       36.0378931623
 In         9.4476603644        9.3012321709        9.2130272452
 In         9.6220441457       12.1119494737       12.1008198732
 In         9.6813908238       15.0168961069       15.1654552514
 In         9.6967078698       18.1314640547       17.9072034789
 In         9.7475055333       20.9586978314       20.9990429585
 In         9.7492756626       24.0753492416       23.7354088316
 In         9.7038261873       26.7964321136       26.8652289596
 In         9.6947588190       29.8502414039       29.6808425179
 In         9.6113158711       32.5717051575       32.7928706739
 In         9.4439105159       35.3923158244       35.7822095650
 Cl        10.1217375555        9.8081683449        7.0499911630
  P        11.0693459829       10.6320922116       10.7122288748
 Cl        11.0519220280       11.2082536166       16.6250915628
 Cl        10.8866097552       13.7512065523        8.3809860323
  P        11.0398467221       13.6754275531       13.5890399362
 Cl        11.1275912876       13.9028016211       19.4471322226
 Cl        11.0071168491       16.6324898201       11.1271915190
  P        11.1032062836       16.5469019472       16.6016235085
 Cl        11.0173990185       17.0277000112       22.2383628803
 Cl        11.0730676362       19.5092707598       14.0623071291
  P        11.1097026749       19.6270890626       19.3807247968
  P        11.1536979200       22.5198718635       22.3796000252
 Cl        11.0342076048       22.8310226054       28.2066687451
 Cl        11.1547411346       25.3216112441       19.7097690354
  P        11.1317086562       25.4104842648       25.3444272496
 Cl        10.9885068642       25.7365865538       30.9586704859
 Cl        11.1146245512       28.2060049947       22.7075266047
  P        11.1006847103       28.3994586904       28.1986329982
 Cl        11.2233445542       28.7073515257       34.2394704076
 Cl        11.4546191195       31.1574553039       25.2587575078
  P        11.0782862214       31.1930899762       31.2635211433
  P        10.9605591151       34.1927567550       34.0891756945
 Cl        11.5502227682       37.0300397256       31.0424326451
 Cl        10.7628186779       35.5248491853       37.7275120615
 In        12.4168925390        9.2051428721       12.2788064896
 In        12.4181157455       12.1990827236        9.2791449607
 In        12.5064404851       12.2574198450       15.0894835110
 In        12.5050405287       15.1730830687       12.1901644522
 In        12.5854174245       15.1516719926       18.1062561420
 In        12.5745330313       18.0461395421       15.1600902642
 In        12.5815858172       18.1379674303       20.8603162387
 In        12.6513596698       21.0809526093       17.9812609283
 In        12.5903980774       21.0834338461       23.8898563906
 In        12.6492792452       23.9733430827       20.9446860713
 In        12.5827097106       23.9216251264       26.7940144903
 In        12.6408297112       26.8688789817       23.9173627103
 In        12.5721035278       26.9494605503       29.6964136410
 In        12.6456052708       29.8318654874       26.7928030290
 In        12.6290186902       29.8275464876       32.6764273955
 In        12.5782280346       32.6595845709       29.8352777297
 In        12.5236810138       32.8112167853       35.4702912545
 In        12.4936184842       35.6364030270       32.6656674670
 Cl        14.0503363316        7.7663718119       11.3932764583
 Cl        14.6465915620        7.5407453193       16.1490909569
  P        13.9185942400       10.7746726989       13.6759829944
  P        13.9163380944       13.7042496802       10.7519322820
  P        13.9961893307       13.6915915425       16.6090259854
 Cl        14.0743543183       14.1237410841       22.4212891188
 Cl        14.5980699965       16.2489899159        7.5564755723
  P        14.0027593695       16.6444861560       13.6587493308
  P        14.0617811716       16.6638838601       19.4873688033
  H        15.1402595041       16.1260701853       25.5633989413
  P        14.0583041600       19.5498796514       16.5718814730
  P        14.0012340933       19.5608539599       22.4358158139
 Cl        14.0102892381       20.0069069409       28.2813693667
 Cl        14.2219726252       22.1911866343       13.5966329855
  P        14.0848508887       22.5010735706       19.5111850915
  P        14.0629043053       22.5000106134       25.3541318468
  H        15.1218095277       21.7945248262       31.2458951956
  H        13.5416087854       24.3460491413       16.3393882189
  P        14.0773788198       25.4370655301       22.4306898710
  P        14.0112017004       25.3907766519       28.3029234608
 Cl        14.1113093522       25.6654816791       34.1773149062
  P        14.0858353312       28.3122121551       25.3913636894
  P        14.0322698253       28.3266625354       31.2221240257
  H        14.0182195982       27.4003482609       35.9328050219
  H        13.1855597232       30.7735080721       23.1944159987
  P        14.0457161756       31.2510682267       28.3255340766
  P        14.0692990495       31.3075616350       34.1465589309
 Cl        14.0935563209       34.2442717493       25.7091854840
  P        14.0050434697       34.1548529077       31.2514372521
  H        12.8754591427       34.7767692768       37.1395517767
  H        13.0291886451       36.5785588233       28.9381808836
 In        15.4795309337        9.3760477062       15.0125187332
 In        15.3360359598       12.2781468223       12.2553687168
 In        15.5538172729       12.2552295111       17.9718873708
 In        15.4610423501       15.0699193152        9.3555963387
 In        15.4711734655       15.1699619760       15.1498101532
 In        15.5431343093       15.2229324858       20.9427023941
 In        15.5424937067       18.0498634781       12.2467631812
 In        15.5319427648       18.1192305961       18.0360531618
 In        15.5500117473       18.1157861147       23.8171234201
 In        15.5522516937       20.9474492854       15.0904542724
 In        15.5284354302       21.0229999713       21.0053042018
 In        15.5372199173       21.0279304097       26.8009104614
 In        15.5712042292       23.9002075667       18.0490792588
 In        15.5272502911       23.9743285103       23.8987252593
 In        15.5430457793       23.9231920294       29.6762211925
 In        15.5405445184       26.9355229443       21.0038408615
 In        15.5372098834       26.8537264772       26.8680481920
 In        15.4844029531       26.8409206741       32.6585923010
 In        15.5568473239       29.7590540923       23.9580828447
 In        15.5048748729       29.7788413113       29.7622803109
 In        15.3820617021       29.6927845454       35.5453582317
 In        15.4854247144       32.7503141726       26.8751830843
 In        15.5385427085       32.7398487580       32.6649599009
 In        15.3821130611       35.6171770289       29.7489948350
  H        17.2971154497        9.0781444118       13.0104840909
 Cl        16.7007528699        8.3763772526       19.5252956438
 Cl        16.7648245373       10.9499967732       10.9330147989
  P        16.9660725452       10.7416834535       16.5480582741
 Cl        16.9001634436       11.0548602417       22.2614218205
  H        16.1070199482       12.7476437041        8.2656220952
  P        16.8964329884       13.7260543120       13.6693489286
  P        16.9611448455       13.7211764278       19.4890613300
 Cl        16.9049103261       14.0332490424       25.2665896178
  P        16.9222846007       16.6249538861       10.7195682459
  P        16.9736255733       16.6502163241       16.5741290208
  P        17.0124976660       16.6555275844       22.4100478609
 Cl        16.6324104280       19.8157214716        8.6455679807
  P        17.0414344314       19.5549446336       13.6185311834
  P        16.9720929736       19.5810753153       19.5229600385
  P        16.9470590767       19.5453998643       25.3461226641
 Cl        16.9271468631       19.9178867111       31.1670690066
 Cl        17.4321039866       22.7812867944       10.9644389209
  P        16.9754378846       22.4528418339       16.5734659019
  P        16.9826845333       22.5155706908       22.4376979185
  P        17.0074328976       22.4810864811       28.2505092424
 Cl        16.8864322365       25.3575651377       14.0905320170
  P        16.9372887858       25.4833030427       19.4630659594
  P        16.9854086990       25.4274201930       25.3714262368
  P        16.9142678103       25.3676408680       31.2054578086
 Cl        17.4235479824       26.0871445669       37.4571319643
 Cl        17.3591539630       28.4576267225       16.7216700146
  P        17.0145620321       28.3846219584       22.4517927092
  P        16.9863848081       28.3433593080       28.3030492132
  P        16.9220179449       28.3153574013       34.1176390274
 Cl        17.3355225589       31.2689796826       19.5818991711
  P        16.9340285771       31.3146775090       25.3675680711
  P        16.9769598604       31.2466104858       31.2230529977
 Cl        16.4088412490       30.4745011008       37.4839066365
 Cl        17.2369854428       34.2467013021       22.6770346317
  P        16.9399377089       34.2642674743       28.2896370862
 Cl        13.7694708102       36.7044439445       34.3215169124
 Cl        16.3477367298       37.4695905407       30.7233778224
 In        18.3467841626        9.2957129241       18.1205976421
 In        18.3664023266       12.2598560109       15.0956470711
 In        18.4322008850       12.2587818987       20.9533191620
 In        18.3590635096       15.1610635969       12.1953633847
 In        18.4314278021       15.1746163272       18.0326859409
 In        18.4356162661       15.1784885027       23.9101066576
 In        18.2614783889       18.2253187338        9.2858799121
 In        18.4685693752       18.0579486420       15.0877129242
 In        18.4471363425       18.1210021052       20.9590746687
 In        18.4178895692       18.0491143783       26.7938527785
 In        18.5076963695       21.0770257077       12.1908051830
 In        18.4388201804       21.0196820293       18.0497051093
 In        18.4282297752       21.0200050544       23.8964406517
 In        18.4454362263       21.0318833849       29.7590368417
 In        18.4435492600       23.9625151875       15.1749624882
 In        18.4216274808       23.9844862381       20.9387954883
 In        18.4535668542       23.9595008052       26.8116367915
 In        18.3744164401       23.9053027702       32.6620331700
 In        18.5109685909       26.8905929650       18.0517494489
 In        18.4509415337       26.8903594333       23.9107058708
 In        18.4225304103       26.8581433910       29.7706250762
 In        18.4543677668       26.9468314776       35.5517909571
 In        18.5190632716       29.8375292407       21.0214723548
 In        18.4284113236       29.8291302745       26.8110064832
 In        18.4242089635       29.7683207877       32.6686186737
 In        18.5051537683       32.7506966872       23.9771366560
 In        18.2885039403       32.6513670418       29.6209222317
 In        18.5904008689       35.7133085328       26.9609244834
 Cl        20.4533775813        7.4863895550       21.8009786703
 Cl        19.6452723400       10.8244428923       13.7518435046
  P        19.8638278517       10.7939878542       19.4967983462
  P        19.8755691875       13.7041621251       16.5600234328
  P        19.8679632166       13.6728963975       22.4916039380
 Cl        19.9083059113       13.8025188765       27.9864575477
 Cl        19.4099305964       17.2382164633        7.5158916094
  P        19.9304590624       16.5779767850       13.6248176422
  P        19.8832964119       16.6212385389       19.5367562438
  P        19.9117809534       16.6405153639       25.3507963705
  H        20.5745280228       17.0676626183       32.0545568380
  P        19.8752048760       19.5660650522       10.7246677078
  P        19.8834691888       19.5449622100       16.6018957216
  P        19.9018156205       19.5856876880       22.4296739820
  P        19.8396645667       19.4883172252       28.3297434788
 Cl        19.9233330776       19.7933823492       34.0856746513
  P        19.9088185366       22.5137494874       13.7326049837
  P        19.8961393475       22.5142073340       19.5034082148
  P        19.8881605848       22.4562204931       25.3839945859
  P        19.8997168567       22.5088119591       31.2171963494
  H        20.7575132390       21.6211766546       36.9624809018
  H        19.6471032422       25.9590813402       11.9787681133
  P        19.9433192723       25.4215614321       16.6043795476
  P        19.8857109974       25.4136003966       22.4437115282
  P        19.8884307142       25.4097639518       28.3107539741
  P        19.8157253604       25.3452810518       34.1723379225
  P        19.9330360229       28.3258263815       19.5800553203
  P        19.9063320553       28.3563299866       25.3822742758
  P        19.8801464073       28.2840541520       31.2554105268
  H        19.2705143273       31.3687189583       17.7421520000
  P        19.9525567607       31.2944887787       22.5002330650
  P        19.9103191194       31.2756443164       28.2972025651
 Cl        19.6107837943       31.0151816938       34.2723569125
  P        19.9408406846       34.2049846596       25.4441203692
  H        18.9658230922       36.2509715648       22.7489996168
 Cl        19.9325982281       36.5740501399       28.6620567837
 In        21.4079602213        9.3725482363       20.8647647873
 In        21.3168239347       12.2664410493       18.0566873042
 In        21.4067417027       12.2531129795       23.9003693535
 In        21.3377587323       15.2311345555       15.2173030473
 In        21.3328014211       15.1541126962       21.0219626774
 In        21.3960210939       15.1587661410       26.7850758362
 In        21.3320359397       18.1244416197       12.1922806142
 In        21.3337155856       18.1141821680       18.1046563185
 In        21.3497012502       18.1142176422       23.9024835790
 In        21.4057244642       18.0620405816       29.6979258534
 In        21.4137621424       20.9425506529        9.3119299723
 In        21.3537847899       21.0243825251       15.1679766264
 In        21.3624463054       21.0576676247       20.9767721385
 In        21.3269732800       20.9723927924       26.8686220969
 In        21.3460598808       21.0145733498       32.6553431413
 In        21.3872729666       23.9278028736       12.2737698250
 In        21.3988211147       23.9701865738       18.0617480947
 In        21.3369054115       23.9226942592       23.9079292866
 In        21.3815270901       23.9741349730       29.7740859229
 In        21.2414594099       23.8148150126       35.5575890250
 In        21.4062029300       26.8735823520       15.1355076826
 In        21.4000644910       26.8715459806       21.0197253680
 In        21.3454811848       26.8719519996       26.8538071490
 In        21.3247580669       26.8010675635       32.7236146508
 In        21.3982244890       29.7723181691       18.1434149400
 In        21.4020743113       29.8078588779       23.9281823168
 In        21.3247232693       29.7661299710       29.7799261090
 In        21.4176232224       32.7516862180       21.0317483848
 In        21.4169787827       32.7504143442       26.8643875553
 In        21.3226019129       35.6243982814       23.9001555231
  H        23.5857438924        9.0969886581       19.2743569653
 Cl        22.4231987539        8.3850889040       25.4132340869
 Cl        22.6554164510       10.9377281162       16.6589706722
  P        22.7995022571       10.7231208634       22.4737368205
 Cl        22.7029836630       11.0268316950       28.1307429311
  H        23.2901548663       13.4255043685       14.8087084865
  P        22.7752504353       13.6983317698       19.5618683257
  P        22.8637515782       13.6876693759       25.3614069353
 Cl        22.6411286041       14.1993383989       31.1450184918
 Cl        22.6331373080       16.8961694629       10.6591860458
  P        22.8016157328       16.6714807020       16.6652284945
  P        22.8137406273       16.6389692960       22.4525093553
  P        22.8403150586       16.6179294748       28.2578426247
 Cl        22.6868060328       16.9175761506       34.0428705915
  H        22.9058401104       18.7162152677        9.0013717082
  P        22.7811046606       19.5824617323       13.6839250675
  P        22.8253282656       19.5832902078       19.5256755436
  P        22.8123384567       19.5760033269       25.3719619747
  P        22.7744907907       19.5343506094       31.2091132831
 Cl        23.0464775334       20.3056105688       37.4178999298
  P        22.7715797098       22.5424433816       10.7271898118
  P        22.8403349985       22.4925457661       16.6103441864
  P        22.8270501377       22.4977733423       22.4534715264
  P        22.7821852519       22.4750582377       28.2979954685
  P        22.8054774610       22.4631478377       34.1519658008
 Cl        22.9073893032       25.4378108337        7.9806430449
  P        22.8655008193       25.4408471720       13.6504295918
  P        22.8507109902       25.4363219908       19.5415499157
  P        22.7828807938       25.4110692869       25.3608508267
  P        22.8596592604       25.4313813437       31.2643339767
 Cl        21.9997598130       24.8435515746       37.5103524801
 Cl        23.2853560258       28.3993951868       10.7979238084
  P        22.8139864682       28.4003742050       16.6002560403
  P        22.8557057398       28.3505497918       22.4644193706
  P        22.7973472387       28.3269618393       28.3205251625
 Cl        22.4946135901       28.0633956956       34.3361604794
 Cl        23.2384946920       31.2733488694       13.7389710170
  P        22.8403239747       31.3001875353       19.5312613967
  P        22.8649437165       31.2474381407       25.4249362272
 Cl        22.5729563853       31.0869188044       31.2588702233
 Cl        23.1116107758       34.2338758834       16.8281029284
  P        22.8764444308       34.2471024239       22.4751095277
 Cl        22.9260766873       34.0045684282       28.1241997151
 Cl        23.3829907360       37.2801230290       19.8646930551
 Cl        22.2311001143       37.5171014151       24.8544827536
 In        24.1446656718        9.2335180391       24.0578744566
 In        24.2219224737       12.2146228457       21.0168510055
 In        24.2836466571       12.1953143841       26.8805601309
 In        24.2304759012       15.1608128926       18.1181883504
 In        24.2844667274       15.1586292817       23.9037247856
 In        24.2863150805       15.1615033769       29.7679918478
 In        24.2237425039       18.1173098504       15.1523289655
 In        24.2713618545       18.1085641625       20.9950211708
 In        24.2860527114       18.1026362933       26.8095695967
 In        24.2185197219       18.0357436930       32.6558506521
 In        24.2124831234       21.0975109263       12.2497492781
 In        24.3108739801       21.0127927835       18.0428235915
 In        24.2943085995       21.0249513255       23.9117925011
 In        24.2345298654       21.0095563742       29.7635146173
 In        24.2957081135       21.0181567170       35.5589805967
 In        24.2325025268       23.9873365998        9.2193138818
 In        24.2948593800       23.9765456927       15.1562279320
 In        24.3002871467       23.9618202260       21.0050087386
 In        24.2339375947       23.9125500076       26.7969155829
 In        24.2952994867       23.9224531138       32.7163776810
 In        24.3883368078       26.8657315883       12.1969641413
 In        24.2968941676       26.9436355874       18.0979615253
 In        24.2952876359       26.8664368725       23.9223687490
 In        24.2676251494       26.8162123196       29.6923267007
 In        24.3798996590       29.8344770971       15.2204931881
 In        24.3148783543       29.8317320179       21.0055862122
 In        24.3080526428       29.7625559143       26.8741559573
 In        24.3862640649       32.7560508112       18.1368631673
 In        24.2121377594       32.6428680861       23.8346282296
 In        24.5244274213       35.7091491388       21.1666263488
 Cl        25.3865603651        7.6047647467       22.9417286121
 Cl        26.4179999213        7.3395732617       27.6504353576
 Cl        25.4216545300       10.7176619672       19.6564965600
  P        25.7041838633       10.7122803249       25.4180239245
  P        25.7434035016       13.6553498177       22.4575333247
  P        25.7141125930       13.6754184640       28.3395409435
 Cl        25.7463142054       14.1219533023       34.2661491440
 Cl        25.2794543696       16.5510106728       13.7449791547
  P        25.7399383197       16.6423354555       19.5248935283
  P        25.7420926075       16.6122137675       25.3768922766
  P        25.7421125925       16.6299841548       31.2380263323
  P        25.7846051557       19.5286770417       16.5713270854
  P        25.7438265423       19.5456650575       22.4627867848
  P        25.7140653255       19.5628749263       28.3078218599
  P        25.6557497366       19.4479573596       34.1821332900
 Cl        25.4079061850       22.4727475512        7.8699099753
  P        25.7343297101       22.5065786940       13.6975675611
  P        25.7356857162       22.4789566310       19.5454432301
  P        25.7640720587       22.4944516206       25.3650016394
  P        25.6914663811       22.4310464019       31.2534343651
  P        25.7932789291       25.3615735105       10.7079276119
  P        25.7272327308       25.4474050750       16.6467601744
  P        25.7678328452       25.4141464567       22.4686368027
  P        25.7024321234       25.3486545815       28.2609309961
 Cl        25.4651952774       25.1932259621       34.3006318074
  P        25.7690452306       28.3166450561       13.7657939025
  P        25.8025466880       28.3765843331       19.5571015620
  P        25.7390595339       28.3016887361       25.4015247562
  H        25.9164509405       28.8803402131       30.1146894464
  H        24.8870568409       31.1000842223       11.9834393048
  P        25.8474702516       31.2941622452       16.6780009270
  P        25.8130717785       31.2794768279       22.4708215363
 Cl        25.6217321469       30.8742169037       28.4670548631
  P        25.8435625934       34.1989778562       19.6175949831
  H        24.9031533362       36.3078567394       16.9987431753
 Cl        25.8547009861       36.6032762554       22.8582462101
 In        27.2802455512        9.3109058345       26.7936438051
 In        27.1694900397       12.1956909882       23.9855856637
 In        27.1218818029       12.1869244809       29.8316441144
 In        27.0885169140       15.2956092843       21.1427315701
 In        27.1757174632       15.1374817991       26.8770342517
 In        27.1946497106       15.1629472237       32.7313833801
 In        27.2529657499       18.0770760571       18.0625507793
 In        27.2021648322       18.0673939749       23.9199267394
 In        27.1861406692       18.1117291178       29.7790679790
 In        27.1084278589       17.9624357688       35.6085530820
 In        27.1849119037       21.0963977728       15.1809258848
 In        27.1993230133       21.0148531168       21.0033478695
 In        27.1890935104       21.0155878458       26.8616438580
 In        27.1205247654       20.9418766729       32.7236017254
 In        27.2110150561       23.9642471727       12.2466720527
 In        27.1795241144       23.9751663094       18.1082784186
 In        27.2611297960       23.9731082537       23.9232395623
 In        27.1245359033       23.9039312930       29.7734254486
 In        27.2662429366       26.8769808367        9.3620981576
 In        27.2452556986       26.8757025106       15.2127030787
 In        27.2465016384       26.8743191519       21.0186253985
 In        27.1983973532       26.8433009341       26.8574930497
 In        27.1945962638       29.7997097579       12.3361783456
 In        27.3219528053       29.8374712837       18.1224498053
 In        27.2050384317       29.7703137551       23.9690865466
 In        27.3524461135       32.7451145781       15.2412316356
 In        27.3325198531       32.7398186607       21.0255158212
 In        27.2592019454       35.6123971852       18.1055473821
  H        28.4653209174        8.9745234129       32.0761718023
 Cl        28.4667325452       10.7609677608       22.6505207081
  P        28.6211352375       10.7185226113       28.3980124459
 Cl        28.6040609806       10.7082828682       33.8027631187
  P        28.6438784810       13.6623060689       25.4394754694
  P        28.5896129553       13.6580030755       31.2809670408
 Cl        28.8451302406       14.6965220789       37.5223679741
 Cl        28.5245659763       16.6469456305       16.7316841868
  P        28.7255728310       16.6076118096       22.4947944171
  P        28.6242156548       16.6291758122       28.3146076830
  P        28.6725506199       16.6400957139       34.2013425776
  H        29.5289464017       20.0288839159       14.4588529675
  P        28.6656075322       19.5605691170       19.5520803821
  P        28.6413299364       19.5510810562       25.3782363842
  P        28.6550028604       19.5809762900       31.2627504421
 Cl        27.7178019732       19.2347976906       37.4913981856
 Cl        28.5768724540       22.4226597040       11.1162461711
  P        28.6385038760       22.5343833811       16.6453828478
  P        28.6793688413       22.4821918482       22.4448455720
  P        28.6405651897       22.4847942813       28.3338070412
 Cl        28.2433304422       22.3206238601       34.2729097891
  H        29.4624806601       25.3335199876        8.9347490165
  P        28.6568160954       25.4445603391       13.7118616270
  P        28.6866767525       25.4002427346       19.5476947354
  P        28.7349137750       25.4277034120       25.4191026303
  P        28.6159003423       28.4363194385       10.8031425915
  P        28.7245536210       28.3494293560       16.6333780189
  P        28.6878423576       28.3321833531       22.4943974262
 Cl        28.4116421528       28.1438868592       28.3782008322
 Cl        28.5648267670       31.4351911545        8.2525857071
  P        28.7119830863       31.3076892225       13.6694250525
  P        28.8219338774       31.2644502854       19.6062000522
 Cl        29.1751343785       34.3872358484       10.9989041432
  P        28.8156193794       34.2133840414       16.7008587123
 Cl        28.2121345203       37.4884110082       19.0578653770
 Cl        29.5396634953       37.3678593872       14.1240629751
 In        30.0650632677        9.3136496600       29.9250848766
 In        30.0775977780       12.1995005554       26.9531853924
 In        30.0787067840       12.1864962593       32.7366041063
 In        30.1457706569       15.0800694736       23.9828619517
 In        30.0184771198       15.1555195566       29.8421806997
 In        30.1528045425       15.1674954152       35.6300312331
 In        30.1442022816       18.1116511018       21.0116165422
 In        30.0864305297       18.0526160446       26.8168558115
 In        30.1054018844       18.1096715201       32.7345588939
 In        30.0934060368       21.0188866138       18.0566840627
 In        30.1168198432       21.0190054608       23.9282515878
 In        30.0801225880       20.9475577101       29.7023353547
 In        30.0968267381       23.9783331315       15.1648682170
 In        30.1689857149       23.8893581803       20.9461442809
 In        30.1526757369       23.9076526258       26.8768072991
 In        30.0718099123       26.9409140917       12.2448068505
 In        30.1583369148       26.8744891269       18.1088352469
 In        30.1489186430       26.7998676827       23.8444643750
 In        30.0076452487       29.9341174072        9.2959811087
 In        30.1663180925       29.7677372589       15.0939162865
 In        30.2275943834       29.7514329179       21.0661924146
 In        30.2919783939       32.7445522028       12.2691104839
 In        30.2411483903       32.6548772969       18.0556594118
 In        30.4697144170       35.6207173023       15.3829399033
 Cl        30.8787644034        7.4551491730       28.7724904144