     282
 i =       28, E =     -8271.3874500229
 In        26.2382736270       23.4106834154       14.3489313871
 Cl        19.7327389041       24.8516562385        7.1388684023
 In        23.4018881463       14.7454464116       14.6580649604
  P        19.0019959106       24.7309528827       13.1609122557
 Cl        21.7823546680       27.4970604855       13.1322228513
  P        19.0775561990       13.0515209068       18.9385409816
  P        22.0594638001       15.8346012887       24.8418990329
  P        19.0380880458       12.9929602949       24.7280634044
 Cl        28.0269129181       10.6561520306       19.1377355795
 In        17.7426168276       26.2465446718       20.4901906902
 In        17.7470426902        8.7523316419       14.3545227203
 Cl        28.0149790488       13.8948125373       16.0969949854
 Cl        27.6128577983       13.1287234673       21.8723040474
 Cl        17.6516940027       27.9555645604       13.0668995334
  P        15.9939023997       24.8499773376       16.1188705655
 Cl        28.0432406368       17.5046904636       13.0065563184
 Cl        27.5930355440       16.0370059637       19.0614314118
 Cl        27.9065755814       15.7995135035       24.5372031000
 Cl        18.6464362948       27.9203472074       21.7664638780
 Cl        27.8063436386       19.7723155837        9.9336336113
 Cl        27.4249951161       18.8316405420       16.0410940285
 Cl        27.9839631967       18.7919930249       21.5840578611
  P        19.0462634030       24.7803884114       18.9311476988
 Cl        17.9643398354       21.9437083010       27.9523341989
 Cl        27.6008069845       21.6431252979       13.1150895565
 Cl        27.9687336820       21.7176689073       18.5183227198
 In        20.3405768714       17.3359474587        8.6703869136
 In        23.4884511763       14.5837065388       20.4312553220
 Cl        27.8623746729       24.5111642723       15.5441398592
 Cl        19.8383466585       27.7272964993        9.9279334561
 In        17.4218059679       14.4158416485        8.6787715974
 Cl        19.0458138531       27.4572071127       16.1569464319
  P        18.9631821231       21.8721056324       16.0203515262
 In        20.4313471404       17.5042208393       14.5752617757
 In        20.7321890583       17.2876428565       26.3255410543
 In        17.5820892146        8.6681089597       20.4023439335
  P        16.1851346026       24.8130154292       21.8954643399
 Cl         7.0353820410       10.3392032770       15.1030846530
 Cl        24.4893735788       21.7233472494       10.1709624676
 In        20.4097083282       20.4066228524       11.5852593151
 Cl         7.5181866601       13.5520233926       13.1569062101
 Cl         6.9759837952       13.3638967418       18.6006653143
  P        24.9467402275       21.8328055255       15.9452741230
 Cl         6.9126349467       15.3179126317       10.1102983309
 Cl         7.5147007329       16.1473096816       16.2681326401
 Cl         7.1070116512       16.4929035220       21.8360717164
 Cl        21.8205204159       27.7854799322       18.7008162277
 In        23.3372327223       17.4127925668       11.5808112675
 Cl         7.1310270768       17.7523879159       13.1582886632
 Cl         7.5578723040       18.9949640315       19.1754428769
 Cl         7.4146008643       19.7057549994       25.0759900150
  P        24.9197690694       15.9631861137       22.0014139989
 In        23.4055679220       17.5769948904       17.6513991247
 Cl         6.9864235382       21.2926518202       16.3673047598
 Cl         7.5842304424       21.9272096076       22.0658624324
 Cl        16.1446440125       27.5269920366       19.0616558997
 In        23.4275286811       17.4233284622       23.4123836340
 Cl         7.0313747934       24.3613804102       19.3808779496
  P        21.9987039620       24.7960686299       15.9380925887
 In        17.5715967787       14.5724250073       14.5657193502
  P        18.8570467646       15.9664563293       10.1185790333
  P        21.7774857488       18.8680920214       10.1352981562
 In        20.4188410131       20.4033799115       17.5041801799
  P        25.0210275151       24.8662936632       12.7067684051
 In        20.4188180107       20.2685637869       23.3315665436
 In         8.5857177048       11.9212040251       14.5887354748
 Cl        15.4729979304       27.7479422392       24.9797921045
 In        23.2499346736       20.0884950898        8.5963507499
 In         8.2785539433       15.8785361823       11.8303258662
 In         8.7587105782       14.5041760033       17.7378133635
 In        17.5755895413       14.4950480650       20.4035915938
 In        23.4179563147       20.3363519411       14.5843185862
 In         8.9184664406       17.5778820326       14.8209321457
 In         8.8314447408       17.4165374801       20.6497917022
  P        19.0437768080       21.8394752911       21.8626369938
 In        23.4870081599       20.4300380459       20.4975275342
 In         8.7486895543       20.5825551257       17.6505060589
 In         8.8386975469       20.3299118164       23.4224121579
 Cl        24.5517619905       27.7535045539       15.5814229998
 In        20.4926639225       17.4980317344       20.4837829883
 In         8.8345017492       23.5816622800       20.5700063831
 Cl        21.6790232876        7.0085222853       16.1956965684
 In        23.7256865801        8.8277445636       20.4164186583
 Cl        22.0780648915        7.5003372557       21.9596736549
 In        23.4118490189       23.2544209035       11.8250237312
 In        17.5662464012       26.0926285434       14.6799536392
  P        19.0928136473       10.1328056347       21.7830558294
 In        20.2504645572       23.2562946123        8.6667925561
 Cl         9.8949899323        7.3542933046       15.2657498364
  P        21.9209300908       18.9460804686       16.0707933336
 In        20.4960910161       23.2664890913       14.5803230977
 Cl        10.1293745099       10.6497518826       13.0140154665
 In        17.4214494216       23.4021559057       11.6591845229
  P        24.9330971339       18.9700640781       19.0740570762
 In        20.5017605428       23.3296428184       20.4189365550
 Cl        10.4901827592       13.2265894015       10.3366096726
  P        10.1476664788       13.0809069595       16.1467117573
 Cl        13.3650069189        9.9548668730       21.4986170136
  P        22.0001298008       18.9495171343       21.9209336064
 Cl        10.0553196133       15.4043782575        7.2303261429
  P        10.2510065833       16.0601498795       13.3253718967
  P        10.2201029022       16.0350935363       19.0711708057
  P        18.8932924919       21.8899163760       10.1985601069
 Cl        19.1400168939        7.4879607471       18.8656132994
 In        23.1831837189       23.0167283335       17.1913157242
 In        17.5120947373       23.3441844171       17.4968903521
  P        10.2389899585       19.0909233034       16.2218123463
  P        10.3219137945       18.9494669035       22.0003571602
 Cl        10.2572626527       19.8082413483       27.8983283081
 Cl        19.6621558699        7.1086336614       24.8278110488
 Cl        13.1972531896       21.6908189695       10.1864424422
  P        10.2085263367       21.9812005399       19.1096601010
 Cl        10.4548504812       21.9534930542       24.5373117660
 In        17.5704677151       14.3450111414       26.2475265126
 Cl        21.8731361054       24.4550966485       10.2253285099
 In        17.5834422462       23.2545351511       23.3363722495
  P        10.0313552977       25.1099624163       22.1308397522
  P        18.9924328616       16.0472914411       16.0586358364
 In        23.5778209344       26.0830214472       14.3409172464
 Cl        10.7562373128       28.0651265393       19.3027468400
 Cl        18.7325595822        6.9777641293       13.3136656784
 In        20.7276217633        8.7450934367       17.3344104759
  P        22.0979247573       10.1292465535       18.9115931678
 In        20.3364054059        8.5830768881       23.2410393203
 Cl        21.2273471435       18.7675739068       28.0102038568
 In        23.6567770772       14.3356870028       26.1664740901
 In        12.0022902607        8.1833727412       15.3955535559
  P        19.0479099139       15.9360284439       21.8784393856
 In        19.6866963326       26.8114155907       11.9962982225
 In        11.9785102529       11.5928620758       11.5941547293
 In        11.6601226809       11.5830500403       17.5790653486
 In        26.3393211802       11.4305353151       20.4983178408
 In        11.6701003295       14.7392189627        8.6819899028
 In        11.6609504031       14.4415731155       14.6736637357
 In        11.6731040757       14.5044292602       20.5015622819
 Cl        21.8599921650       21.8423767305        7.4392609621
 In        23.4970603023       11.6749773632       17.4824094307
 In        11.6623097381       17.4386700315       11.7584958174
 In        11.6689384458       17.4890906237       17.5754158203
 In        11.7450595292       17.4189025201       23.4978951700
 Cl        19.1440943066       15.7734962002       27.5494024914
 In        17.5604746688       17.3426434828       23.3356930005
 In        11.6553363552       20.4903941223       14.5912712537
 In        11.6786647611       20.4212044970       20.4281548677
 In        12.3976024290       19.6870907253       27.1373704346
 Cl        18.8564395119       18.9883012941        7.4705925582
 In        11.6669285522       23.4068075387       17.5751077213
 In        11.6633246426       23.4913732704       22.9387355433
 Cl        21.8268592895       10.2391733882       24.5921960086
  P        21.8964607778       21.7655330651       13.1149128042
 In        11.5079635430       26.2524887238       20.4932414291
 In        20.5758500054       14.4926949676       23.3330240735
  P        18.9609593384       18.9564012269       13.0725735617
 In        17.3396985555       20.4956171841        8.7487623226
 In        20.6561484501       26.1667294374       17.5837292022
  P        24.7886222192       18.8272899092       13.1163277372
 In        26.3438261265       14.4317555329       17.5818468729
 In        20.5703898012       11.6776284116       14.4961347606
 Cl        13.1493209445        7.4067718422       13.3614826132
 Cl        16.5389741081        6.8904186522       21.4065343003
 In        26.3255867239       14.4311883650       23.5738773754
 Cl        18.5829582938       13.5990549520        6.8880491340
  P        12.8377566536        9.8783182837       10.0996520236
  P        13.1927728120       10.2674743575       16.0176009721
 In        17.4908273791       20.4235799479       14.5142050970
  P        21.9390549279       21.8311288174       18.9676479013
 Cl        12.9907009822       13.0362195756        7.5556044662
  P        13.1816916582       13.1130775205       13.1623542930
  P        13.1287147894       13.0751888200       18.9819382258
 Cl        13.1173033478        7.0392442755       17.4004501192
  P        16.2713702288       21.7169217221       24.8065089628
  P        13.1091375208       16.0603333866       10.2114322728
  P        13.1094863791       16.0129918859       16.0653682579
  P        13.1461647969       15.9765886347       21.9573398660
 Cl        13.3869165906       17.5092787066       28.1006261959
 Cl        13.1890478463       18.5285678476        7.1189286842
  P        13.0943798131       18.9847066857       13.1328636322
  P        13.1631872770       18.9404871364       19.0104247096
  P        13.2628437775       18.9103270607       24.9076728548
 Cl        24.8108592110       19.7394086033        6.9931361074
 Cl        24.5041484892        7.0065908692       19.2494573733
 Cl        16.4785506580       21.7747725694        7.0543308077
  P        13.1061312937       21.9332321573       16.0782375771
  P        13.2246896659       21.8803980046       21.8570226820
 Cl        13.7908130296       21.4641197549       27.8235143657
 Cl        21.5716418286       24.8053269427       21.8476870096
 Cl        16.5516836505       25.0754525236       10.3197638153
  P        13.1284745717       24.8805075593       19.0591448394
 Cl        13.2726438528       24.6914191595       24.4941499903
  P        21.9988027858       13.1422427370       16.0088642579
  P        18.9829985029       18.9381214147       18.9929870084
 Cl        13.7996245528       28.1158583314       16.3134211087
 Cl        13.2147470699       27.5237374907       21.9662376487
  P        22.0353754495       13.0504016011       21.8656625930
  P        24.8262220934       16.0272994118       16.2922507641
 Cl        15.2770933179       24.8177642140       28.0888199713
 Cl        21.9998482242       12.7481354593       27.4099175727
 In        17.4934151960       17.4939365420       11.5915758184
  P        21.9428404959       16.0406240193       19.0164323019
  P        19.1805698874       18.6121424978       24.7633070397
 In        20.6465504987       11.5882136200       20.3379417912
 In        14.5056670592        8.7462597917       11.5876753113
 In        14.7401688670        8.9025475399       17.4217611444
 In        26.0846109296       17.1586276742       14.4989603194
 In        14.4429720885       11.3588728320        8.9016194605
 In        14.7341288248       11.6023411071       14.5047506463
 In        14.5926987398       11.5843230156       20.4177399288
 In        26.3388835821       17.5033084443       20.6506539916
  P        25.1414662052       12.7728047476       24.9947447681
 In        14.5991641005       14.5775960726       11.6563974814
 In        14.5936809000       14.5121662854       17.5039717974
 In        14.5853788336       14.4213679317       23.3457389823
 In        20.2656658048       11.5087586726       26.2560259723
 In        14.4983230967       17.5947063413        8.7554848931
 In        14.5733420366       17.4936572033       14.5788272829
 In        14.5975477205       17.4289512315       20.4911651930
 In        14.8972986475       17.4910143321       26.1628342045
  P        25.1443793700        9.9541362018       22.0831791629
 In        14.5063586246       20.4894484839       11.6616283806
 In        14.5761778177       20.4242911813       17.4959398598
 In        14.5864140605       20.4162090628       23.4202661292
  P        18.9878633238       13.1103730688       13.0800408364
  P        19.1311536568       10.1577516437       15.9411823505
 In        14.5154625254       23.4093932087       14.5828267909
 In        14.6596647265       23.4072092894       20.4141444748
 In        16.1999703315       23.2575513285       26.7335202526
 In        17.5100549812       11.6674397362       11.5870087058
 In        14.5050647209       26.3347045420       17.5701024665
 In        14.8294728085       26.3220453210       23.3315622657
 Cl        21.6453946472       16.7313037514        6.8857699128
 Cl        21.9466961338       13.6709375614       10.1101892836
 In        17.5023743858       17.4929250361       17.5086062089
  P        21.8671623157       16.0491966650       13.0981832877
 Cl        19.5914739036        9.8762299504       27.6781057916
 Cl        24.1913628060       15.5780922234       28.0330145004
 In        23.8178664780       11.7465512866       23.1669977252
 In        17.5557461889       11.5133457755       23.2630460961
 Cl        15.5367315058        6.9345778792       10.6246715153
 Cl        16.2518887331        7.5408684543       16.0231338103
 In        18.0742963550       20.4126380435       26.0084155320
 In        26.8868895881       19.5237284119       11.9959443309
 Cl        15.5830542444       10.4857393876        7.1103787343
  P        16.0950808370       10.1225560947       13.0320908930
  P        16.1798215151       10.1737141967       18.9581217906
 Cl        16.5170383992       13.2773426324       27.9828049999
 In        26.3356654234       20.4172793744       17.5808096825
 In        20.4163806320       14.5662268604       11.5967878305
  P        15.9220195235       13.0512862745       10.1542097309
  P        16.1120037199       13.0800532881       16.0360444081
  P        16.0976139151       13.0258863346       21.8595971957
 In        17.5047178027       20.4061164886       20.4356497789
 Cl        15.9293634364       16.0505309326        7.4538023421
  P        16.0559306765       16.0472989219       13.1139011635
  P        16.0666197590       15.9918712239       18.9798701637
  P        16.1432013901       15.8432966153       24.8202973103
 In        17.6616987277       11.5882729057       17.4196488277
  P        24.9328021205       13.0458832140       19.0572505141
  P        15.9858703378       18.9922561251       10.2026736911
  P        16.0469111220       18.9694734730       16.0305984305
  P        16.0750370192       18.9218893382       21.9536238312
 Cl        16.5671175076       18.7947090340       27.4056842251
 In        20.5109679897       14.5791813953       17.4927153772
  P        15.9994697044       21.9309734425       13.1219019781
  P        16.0632828590       21.8874013846       18.9631704352
 Cl        20.3464334529       21.7881326082       25.2704373919
 Cl        25.3774388443       14.8748735283       13.1631903702
 Cl        16.5190908909       10.0321213940       24.7003658052
 Cl        24.9268855062       10.5965859889       16.0164235462
 Cl        21.9574666192       10.4880278835       13.0886760455
 Cl        18.8050470607       10.4257747954       10.1338944998
 Cl        24.8781917393       16.8414715814        9.9341535857
 Cl         9.6478942794       17.8187635371       10.4490727282
 Cl        10.0752856694       21.4588507919       13.2067596773
 Cl        13.4119898592       24.9357718467       13.2512045430
 Cl        10.2889992544       24.7969463279       16.3514777141
 Cl        10.3919639727        9.8990837908       18.5278279020
 Cl        10.1979537547       13.1611752675       21.6584213856
 Cl        13.3382940232       13.1676043367       24.8256683845
 Cl        10.3424592315       16.3259633495       24.9644154339
 Cl        17.9281327738       24.6734457539       25.3399822891
 Cl        24.3671555835       18.9515396155       24.8833991322
 Cl        24.5690948155       22.0764298628       21.7054659098
