    1259
 i =       69, E =    -35850.1552332678
 Cl        18.5653567086       42.0732863464       18.7596751086
 Cl        24.4954259799       42.0328819897       24.4315955672
  S        39.2399901906       15.7195773713       24.5288650753
 Cl        42.0762961906       18.7581036244       24.4135276610
 Cd        31.9445258499       20.0043738727       40.5822512967
  S        18.6637091746       33.2977168291       27.3915182274
  S        21.5358086295       36.2899944208       27.4291835594
  S        24.4594634468       39.2372800805       27.3952647347
 Cl        27.4325686197       42.0158018680       27.3628978916
  S        18.6177779270       30.3711730303       18.5687162223
  S        33.0929574426       39.3120204852       30.3580999722
  S         9.6363196005       24.3597830466       15.5153461204
  S        21.5562070416       30.3879931534       21.5337844091
 Cd        34.9550695708       20.0174454200       14.1339639441
  S        21.5550255101       33.3164615805       18.5580358896
 Cd        32.1013935330       40.5898895159       20.0237230479
  S        24.4913462074       15.6347520607       27.4551280857
 Cd         9.0667885930       28.7521257674       14.3713111318
  S        30.3888905305       12.7524587474       18.6036838244
 Cd        14.4571129971       34.5220940312       14.3929484181
  S        33.4006309677       15.6386604252       18.6183519798
 Cd        20.2422414524       40.0022620611       14.3809018203
  S        39.8286721600       28.7986639808       14.4941929434
  S        21.5617778660       24.4725505886       15.6724426800
 Cl         6.9635433258       27.4215557705       21.5862187175
  S         9.8407710815       30.4170787113       21.5225342915
  S        24.5001077633       36.2985441053       18.5184789420
  S        15.7814931899       12.7201512882       33.4482287736
  S        18.6176753923       15.6572081354       33.3962577413
  S        21.5766465497       18.6138250230       33.3277334077
  S        24.5019966986       21.5684475266       33.3156329525
  S        27.4459744672       24.5071169598       33.3343438633
  S        30.3904496677       27.4349272986       33.3325532596
  S        33.3237549695       30.3733077368       33.3318739894
  S        27.4483611065       27.4567131417       36.2727672352
 Cd        40.4370632935       26.4740114683       14.9352373726
 Cd         8.4877004032       25.8128856827       17.2369042536
 Cd        11.3639704711       28.9513594286       17.0821792739
 Cd        14.2085488590       31.8642824889       17.0121081986
 Cd        17.0914646965       34.7818367035       17.0012698152
 Cd        20.0172578610       37.6278512017       17.0556472011
 Cd        23.1867739107       40.5104743216       17.2155576895
 Cd        25.5614571919        8.0020875877       13.5647235507
  S        15.6655587294       18.6067897993       27.4291238645
  S        36.2732627757       33.4499345978       33.2342200070
 Cl        24.5654188005       42.1078120196       30.1312516626
  S         9.6587687434       21.7797318858       36.2802900211
  S        12.7091336837       24.6685066675       36.3613938377
  S        15.7821599995       27.4356866441       36.1454090805
  S        18.5434466596       30.5168367245       36.2849317328
 Cd        40.4943717614       14.2796523848       20.2333465627
 Cl        21.5679775156       15.7641383374       42.1176501554
 Cl        24.4365012433       18.7754963503       42.0540608594
  S        30.4071673854       30.4051577562       36.2085714231
 Cd        23.0277028489       31.8402053868       20.0277027080
 Cd         8.4012079867       22.9490113409       20.0693045589
 Cd        11.2890065190       25.9610293173       20.0763889986
 Cd        14.2670439597       28.8997251932       20.0837461087
 Cd        17.1470637506       31.8510924255       20.0213650120
 Cd        20.0924700510       34.7344935565       20.0622465956
 Cd        23.0302594328       37.7101089701       20.0233940374
 Cd        26.0449404756       40.6023302933       20.0131637767
  S        18.6006196427       36.1894211548       18.5771935733
  S        18.6136251808       21.5525448185       27.4400811300
 Cd        34.9583861419       11.4335991247       23.1183669799
 Cl        27.5099548406       21.4643339113       42.0391696342
 Cl        30.2242991567       24.6449348319       42.0002385918
 Cl        33.5648490330       27.2718186520       41.8079756680
 Cd         8.4760854046       32.0158387071       28.9839454013
 Cd        34.2191535561       22.2895418139       40.8383027207
 Cd        31.9862286469       14.0479551971       11.7706902886
 Cd        11.5212182369       14.2853605389       19.9197844012
  S        18.5711630871       12.6829031907       36.3756724990
 Cd        11.5749110944       34.7128442078       29.0724279582
 Cd         8.3961216893       20.0227745166       22.9559790918
 Cd        11.2807982519       23.0127611157       23.0190827280
 Cd        14.2080021934       25.9669934946       23.0271558646
 Cd        17.1520350729       28.9114249163       23.0252156318
 Cd        20.0868738076       31.8476418108       23.0141604930
 Cd        23.0309614880       34.7939005098       22.9720183330
 Cd        25.9760941856       37.7145667476       22.9501884537
 Cd        28.9749596426       40.5918047440       22.8843656396
  S        21.5174077899       39.1704570745       18.5267646829
  S        21.6302365134       15.6109877885       36.3018171626
  S        24.5309708724       18.5995923081       36.2155675147
  S        27.4642876352       21.5415803604       36.2728026122
  S        30.4136323295       24.4852297682       36.3068161516
  S        33.3813532258       27.3468883809       36.3122088496
  S        36.3247411048       30.1269571081       36.3189836096
  S        24.4845248320       12.6494796590       18.5771303148
 Cd        28.7398995185       14.2031434792        9.1508013779
  S        21.6012095984       33.3346605638       36.1418580096
 Cd        14.3590738736       37.4836337143       29.0807057984
 Cd         8.4904972333       17.2284139674       25.8704322950
 Cd        11.2847336147       20.0827218710       25.9596695234
 Cd        14.2074979340       23.0292159617       25.9685609729
 Cd        17.1413539258       25.9658900421       25.9657678467
 Cd        20.0944387672       28.9018301937       25.9550988831
 Cd        23.0369899195       31.8561363950       25.9070339099
 Cd        25.9666747147       34.7897273674       25.9054889913
 Cd        28.9009831231       37.6619564703       25.8658148419
 Cd        31.7830056569       40.6989854900       25.8211106612
 Cd        38.2847629321       19.9293026571       12.0132813163
  S        24.3699057937       36.4054099244       36.2834639149
  S        27.2936298893       39.5098285510       36.2364324189
  S        21.5595619787       15.6945604393       12.8119259636
 Cl         6.9399856121       18.5486757326       30.1988382204
  S        33.2442808238       33.4667425736       36.2741804607
 Cd        17.0675265473       40.5884496548       28.9875058049
  S        21.6134102237       36.1752512720       33.2096261217
  S        24.5032719206       39.2451816069       33.2377660661
  S        21.6666069568       18.5911051293       39.1677758628
 Cd         9.1514502556       14.2025988032       28.7349714076
 Cd        11.4236549949       17.0866384597       28.9146753554
 Cd        14.2260034682       20.0903938914       28.9081561666
 Cd        17.1511014840       23.0290493796       28.9124210353
 Cd        20.0962353100       25.9605740312       28.9029408654
 Cd        23.0514580759       28.9105422909       28.8936828258
 Cd        25.9692102061       31.8590205489       28.9015538629
 Cd        28.9015717077       34.7880874408       28.8909760632
 Cd        31.9004645450       37.7233674571       28.9053324295
 Cd        34.4649458071       40.3476737778       28.6607778714
 Cl        24.3848712963       42.0107841096       18.7420351995
  S        21.4899890992       39.2344826630       30.4046799394
  S        21.5626430811       24.4916179397       27.4308038933
  S         9.8225716013       21.5234176130       30.4281350369
  S        12.6853279230       24.5171451194       30.4203817974
  S        15.7009667065       27.4104265576       30.3450622591
  S        18.6958438839       30.3297251310       30.2888581529
  S        21.6018080283       33.2896889984       30.3118542604
 Cd        14.2106821706       17.2540005800       20.0272365001
 Cd        17.1614464609       20.1048520435       20.1090716867
 Cd        11.8234571615       14.0427900003       31.9427612771
 Cd        14.2137619627       17.0889184183       31.9348082267
 Cd        17.1525306405       20.0779340602       31.8619197710
 Cd        20.0927506797       23.0296956272       31.8497478036
 Cd        23.0497330650       25.9730243356       31.8490290309
 Cd        25.9781345467       28.9229295628       31.8499307602
 Cd        28.9291885625       31.9152455263       31.8494677298
 Cd        31.8980979172       34.9277985334       31.8625241227
 Cd        34.7162232592       37.8094117972       31.5388120102
  S        21.5489532005       12.7082044258       27.4465333488
  S        21.9315864727       12.7617093505       39.4511094976
  S        24.5809710831       15.7251516062       39.2227140158
  S        27.5414697732       18.5525614813       39.1945249191
  S        30.3927299454       21.4968102165       39.2018139726
  S        33.4383815699       24.3635496033       39.3784424208
  S        36.3837100013       27.0471705276       39.3827590024
  S        18.6126783512       27.4424310273       21.5492520297
 Cd        14.0583098841       25.8095217380       11.2047664402
  S        36.2360522994       18.6051821195       24.5016487294
 Cd        20.0929295806       23.0329576982       20.0941906658
 Cd        14.4604867544       14.4624885112       34.5612742113
 Cd        17.1386708967       17.1587580570       34.8672583390
 Cd        20.0978621714       20.0875039640       34.7858224277
 Cd        23.0438683724       23.0360088092       34.7886782251
 Cd        25.9719596365       25.9738737216       34.7913912662
 Cd        28.9114270460       28.9203274270       34.7695679899
 Cd        31.9154581007       31.9823286700       34.7886466063
 Cd        34.5438297503       34.6216508049       34.5341382174
 Cd        17.0867385382       28.8935371520       11.1960295922
 Cl        27.3988563628       42.1336253394       33.1173764944
  S        12.6922625650       33.3635637482       21.6454812136
 Cd        17.4621317911        8.5835312792       31.5206281276
 Cd        31.9215529689       20.0005009540       11.3447194610
  S        24.5098499066       27.4343508565       27.4249375643
  S        24.4850283216       36.2491742817       30.3226110058
  S        27.3725964547       39.1719879551       30.3431863403
 Cl        37.0791494831       33.4955551522       37.0673045137
  S        24.4865502506       18.5616736676       12.6790593935
  S        27.4537144758       21.5397340465       12.7145902467
 Cd        23.0250928774       25.9629919969       20.0808775155
 Cd        17.4966280280       14.5226982851       37.6589604684
 Cd        20.1010338754       17.0803480080       37.7439847138
 Cd        23.1107246350       20.0818543832       37.6731986784
 Cd        25.9933629221       23.0267059901       37.7153890280
 Cd        28.9103914511       25.9662681334       37.7161312062
 Cd        31.8982083301       28.9304745993       37.5803216409
 Cd        34.9500807991       31.9971569983       37.2127778075
 Cd        20.0903481779       31.8447523578       11.1970764303
  S        30.4708449236       24.4611602822       12.6765671239
 Cd         8.4175314682       20.0327818330       16.9853937939
  S        27.4073466291       18.6227481403       27.4018682040
 Cd         8.1653110975       14.7073550068       22.2960133286
 Cd        11.2650776696       17.0898017485       22.9462109151
 Cd        23.1269243420       34.8846104879       11.1930467403
 Cd        14.1930405036       20.0826932924       23.0238577321
 Cd        25.9616900957       28.8506562141       20.0798296902
  S        30.3549204234       21.5864198427       27.4072549243
  S        12.8659469776       12.8532074189       18.4155258140
  S        15.7780058628       15.7420857422       18.6886428529
 Cd        28.8727041179       31.7835337203       20.0900869058
 Cd        20.2394351897       14.2961136520       40.4924054466
 Cd        23.0989467373       17.1437406808       40.7372621370
 Cd        26.0460801247       20.0128432897       40.6056541718
 Cd        28.9222493562       22.9591305455       40.6493219455
  S        30.3995331523       15.6425423411       21.5573372972
  S        33.3363975729       18.6108833912       21.5580022586
  S        36.3055413445       21.5654253078       21.5822727538
  S        39.2547365106       24.5321073241       21.5740880995
 Cl        42.0706285703       27.5135854060       21.4694027157
 Cd        31.7501202775       25.8751689864       40.5116600239
 Cd        34.7872052997       28.7444457219       39.8437672095
  S        36.1889255109       21.5517090207       33.2646097705
  S        18.7018691008       18.6566632615       18.7009618083
  S        21.5908618714       21.5704899903       18.6475037283
 Cd        34.6148740434        8.9853954132       20.2308911714
 Cl        18.4823562743       12.3110593859       40.3854161397
 Cl        27.2076878911       16.2600814930       42.3992379978
 Cl        31.1026430414       17.7904308069       41.3166597418
 Cl        32.4222616326       21.6394207553       42.4700829625
 Cl        35.9374840857       23.5603861182       42.2123728254
  S         9.8516947325       18.5658761109       27.4907286368
 Cl         7.7220549685       31.1812474437       31.1817401048
  S        30.4212732353       27.5007524284       39.1480002948
  S        21.5158814795        9.7993359259       30.4209800236
  S        39.1751272846       27.4988257272       30.4017988467
 Cl        42.1268060598       30.2014400361       30.4223153514
  S        18.5861346693       36.3116110228       24.4972689755
  S        33.3566666623       36.4966787049       33.3255000727
  S        24.4975818303       21.5021717112        9.7572997518
 Cl        31.1576387677        7.6598339957       31.1605408864
  S        33.3056590687       33.3712396953       30.3785488459
  S        12.8991621374       36.1566707129       30.5776446101
 Cd        11.2758055156       22.9435363546       17.0856115327
 Cd        14.2068454503       25.9718783874       17.1028007937
 Cd        17.1485372905       28.9052830737       17.0707613376
  S        21.5338209944       39.2098743249       24.4798201749
 Cl         6.5376823827       21.6807977919       16.4964985211
 Cd        35.4522111487        8.0901185232       23.4362709993
 Cd        29.0117778195       37.6417161975       19.9356857907
  S        36.2752008504       36.1823595126       30.3829331619
 Cl        17.9066756757       41.3087608694       31.2072663421
 Cl        42.0852264141       24.5055719251       24.5335176867
 Cd        20.0180777027       11.3447492989       31.9157691970
 Cd        20.0076397447       16.9850506764        8.4124577233
 Cd        22.9580790426       20.0202010817        8.3389097473
 Cd        25.9697210521       23.0283033697        8.3458783910
 Cd        28.9721001681       26.0363588124        8.3466643269
 Cd        32.0057750481       28.9764497667        8.4121677312
  S        39.3809692691       24.3607838293       33.4326570888
 Cd        31.9117279734       11.3072908101       20.0160301642
 Cd        17.1398821605       23.0296850422       23.0277549077
  S        24.5548148319       21.5415859460       39.1943884817
  S        33.3380475103       24.5064907116       27.4435069266
  S        24.5002124306       24.4727675764       18.6226218133
  S        27.4232389794       27.3656339431       18.6283109004
  S        30.3284460063       30.2723954878       18.6731039555
  S        33.2387543146       33.2211650412       18.6750383169
  S        36.1533485355       36.1162633241       18.3931035774
  S         9.6535001915       24.6204841085       33.4813046377
 Cd        31.7054318178       34.7762830056       20.0155603397
 Cd        20.0863955197       25.9684864882       23.0247735185
 Cd        23.0134619787       14.1924299039       31.8631982768
 Cd        19.9195716033       14.2869002312       11.5187471515
 Cd        22.9541394784       17.0879387826       11.2564361771
 Cd        25.9631923234       20.0812941749       11.2734443374
 Cd        28.9231281292       23.0290187839       11.2674876162
 Cd        31.9189535164       26.0415574577       11.2684735252
 Cd        34.7050991522       29.0721485995       11.5238487921
  S        12.8412021562       27.4182111783       33.3099609702
 Cd        34.9434388817       14.1192797633       20.0282389892
  S         9.8874157875       18.4494788367       33.2964423854
  S        12.7101906352       21.5973485291       33.3466702786
  S        15.7039139756       24.4787797583       33.2921889912
  S        24.5021769428       12.6647725175       30.4318883891
 Cd        23.0242097080       28.9100546869       23.0149035590
  S        18.6778103476       27.4425998043       33.2641791986
  S        21.6003684177       30.3616777674       33.2894060146
  S        24.5412358723       33.3175107885       33.2882354539
 Cd        25.9608879869       31.8518712762       22.9778986484
  S        33.4180583053       30.5355675168       39.0476046791
 Cd        25.9765844197       17.1476783805       31.8385016112
 Cd        19.9252035267       11.5232958498       14.2957202857
 Cd        23.0541300887       14.2014702422       14.2282865842
 Cd        25.9628506926       17.1381864397       14.2034344086
 Cd        28.9150197211       20.0837974209       14.2212152563
 Cd        31.9137570712       22.9638667377       14.2026599700
 Cd        34.8126764357       25.8746638802       14.2312098846
 Cd        37.4101874286       29.0046455595       14.3015992060
  S        15.7756827755       30.3243695221       33.2264012857
  S        12.7053572724       30.4579388145       30.5022245053
 Cd        28.8859264505       34.7721280710       22.9547083546
 Cd        31.8377519161       37.6624834817       22.9521317275
 Cd        34.1127225828       40.4260260703       22.4522429926
  S        27.3851559223       36.3484728608       33.3302822128
 Cd        31.5215710947       17.4061004440        8.5984941906
 Cl         6.9903180068       24.4955413668       24.4965185986
 Cd        13.6189433828        7.9976309074       25.5629094948
 Cl         6.8992971321       23.5776329088       12.9113651838
  S         9.6874774972       27.1749962552       12.6784742837
  S        27.4520073857       30.4033368890       33.3188389305
 Cd        20.0201520651        8.4115582205       16.9835435830
 Cd        22.9482067934       11.2065188404       17.1258700585
 Cd        25.9615805931       14.1830236761       17.1478997532
 Cd        28.9260888752       17.1358235280       17.1451195274
 Cd        31.9245976959       20.0270686330       17.1454958161
 Cd        34.8548110806       22.9534226003       17.1260340050
 Cd        37.7126503416       25.9796147418       17.2159901192
 Cd        40.5933072528       28.9139763290       16.9075596801
 Cd        28.8953821242       20.1159882380       31.8173919847
  S        12.6552852967       30.3484035673       12.6101428276
  S        15.6851488127       33.2669274282       12.5638307732
 Cd        34.6187706085       20.1930756612        8.9929451402
 Cd        35.4494953996       23.4231229408        8.0977204023
 Cd        35.3727615980       25.5557358105       40.9947061553
 Cl        27.4110483087        6.9027953957       21.5746464241
  S        30.4051355629       39.3098773827       33.0822744933
 Cd        28.9219293904       17.0811020779       11.4151898014
  S        36.2793994483       27.4491819661       27.4451642772
  S         9.6395306614       12.5934837475       27.0545463687
 Cd         8.0128764075       35.3751310901       23.4372978162
 Cd        22.9614156604        8.3330126963       20.0705542735
 Cd        25.9636268516       11.2572504311       20.0922928305
 Cd        28.9134682695       14.2119292423       20.0914223793
 Cd        31.9202120953       17.0943363553       20.0814454688
 Cd        34.8288586733       20.0816596875       20.0964471026
 Cd        37.7313998524       23.0936141139       20.1165820761
 Cd        40.6637056869       26.0228631403       20.0231279836
  S        27.4160986626       15.6855351497       30.3263957960
 Cd        13.6296046298       40.9922692038       23.4395301585
  S        27.4500047422       12.6974886094       21.5532379589
 Cd        20.0818530451       31.8445852726       17.0640018231
 Cd        34.7082571836       37.4045813051       19.9249493103
  S        12.7472431131       21.7647393471       39.4588549464
  S        15.7489944477       24.5391060068       39.1989257884
  S        18.5803538702       27.5276627081       39.1944472209
  S        21.4910186084       30.4525665933       39.1806228809
 Cd        23.0226706577       34.7860957015       17.0673768902
 Cd        26.0516274979       37.7166325460       17.0607143141
  S        12.7021811472       15.5992077377       27.3460340514
  S        20.0430940652        9.1166661711       14.5688916114
 Cd        25.9661421417        8.3371633603       23.0452477675
 Cd        28.9177950872       11.2456123211       23.0332711223
 Cd        31.8754375201       14.1547318790       23.0124563804
 Cd        34.8109908276       17.0904347016       22.9770321358
 Cd        37.7223928164       20.0919591446       23.1067432326
 Cd        40.6647388871       23.0508901203       23.0916313260
 Cd        31.5229476912        8.5776568296       17.4137683572
  S        30.3762830294       36.2139752088       24.4301579450
 Cd        28.9922181937       40.5794011751       16.9789290331
 Cd         8.0960958678       23.4347216650       35.4484011210
 Cd        20.0072342663       32.0110980523       40.5759796750
  S        24.3780521694       33.4920517683       39.3424674046
  S        27.2061044288       36.3118653106       39.3489074651
  S        27.4342313258       30.2897686965       15.6990373082
 Cd        31.8473312231       23.0327959517       31.8419432393
  S        18.6705491702       18.6290294307       36.2644092910
  S        12.7498749368       27.0307336148        9.5016694716
  S        15.8453570695       30.3159931987        9.6144920007
  S        18.6976191933       33.2466002112       33.2143855828
 Cd        34.9671235055       23.1138659830       11.4383042169
 Cd        28.9656589726        8.3447095978       26.0465235447
 Cd        31.9169011633       11.2523820841       26.0511713809
 Cd        34.8034740583       14.2180187021       25.8873832271
 Cd        37.7114524378       17.1701717264       25.9826708733
 Cd        40.6619637085       20.0106351275       26.0411818858
 Cl        24.6243070316        6.9543576279       18.7671451265
  S        33.2902902399       39.2173197806       24.4086165500
  S        18.6410887876       33.0577128022        9.6155220304
  S        21.8896342604       36.1866015941        9.4918321907
  S         9.8053396394       27.4573157233       24.5115759660
  S        15.6622405058       27.4429648163       24.4908913430
  S        12.7186971117       18.6167429549       36.1718635913
  S        15.6603236179       21.6373795841       36.3150674569
  S        18.6652042141       24.5265965223       36.2042432582
  S        21.5501089853       27.4892481656       36.2777732474
  S        24.4886493829       30.4367578667       36.3096748053
 Cl         7.0087283166       18.7546507087       24.6350290108
  S         9.7988343788       21.5264905779       24.4802339258
  S        30.4239092742        9.7724989469       21.5254864343
  S        12.7225841144       15.7620689240       33.4158095178
 Cd        32.0161025336        8.4129360750       28.9732152030
 Cd        34.7061540772       11.5214213952       29.0772371068
 Cd        37.4136318639       14.2938264565       29.0546344710
 Cd        40.5942796445       16.8924313190       28.9050814659
 Cd        37.7187996433       14.4548193759       17.5474185723
 Cl        36.6342102345       39.6419922226       31.2147392875
  S        27.4083685412       33.3645804475       36.2877231296
  S        30.3976748247       36.2023009880       36.2637325287
  S        27.4817665325       24.4916502740        9.7627540878
  S        30.4428951123       27.4854981677        9.7959987364
 Cd        22.2901891031       34.3034627853       40.7612222579
  S        18.6001828608       36.2676852639       12.6217833523
 Cd        34.7984165758       25.9621142253       31.8509481937
  S         9.1196828782       20.0356176716       14.5719075764
  S        12.7276444266       24.2570145244       12.6534213702
  S        15.6294459699       27.3467205262       12.6451569614
  S        18.6389821985       30.3164118589       12.6739923682
  S        21.6201229794       33.3154718955       12.6421493461
 Cl        17.8131405609       31.1042564738       41.3058825352
 Cl        13.0043887343        6.7599461974       23.5903730895
 Cd        14.0479869989       11.3581822751       25.8015676559
 Cd        17.1490237627       14.1889720999       25.9558130176
 Cd        20.0897166815       17.1421456481       25.9671413341
  S        27.4811270061        9.7875299491       18.5884131260
 Cl        21.6579133627       32.5352202995       42.4357867371
  S        24.6785571376       36.2442797157       12.6175302514
  S        28.9772163261       39.8261630382       14.5783860291
  S         9.9694835747       15.5612423291       30.5194783593
  S        21.7919873361       39.3432883575       12.6708954825
 Cd        37.5974699846       28.9226827451       31.8639060916
 Cd        25.5621380728       35.4505990915       40.9074105241
 Cl         7.1431029019       27.1678207935       15.4079643981
  S        15.7398799091       12.7855456433       21.5582175875
  S        18.6668427267       15.6829985161       21.6065787804
 Cl         6.5694396640       32.4769000526       27.3558225604
  S        33.3198322718       27.4162340745       12.8241065833
 Cl         6.7984845605       12.9860617462       23.5666416953
  S        18.6242946704       30.3755043671       24.4861401436
  S        15.9163744291       18.6362228431       39.2998895977
 Cl        23.5466237605       36.1018121913       42.0463091419
 Cd        37.7509504883       14.0476012676       23.1223348938
 Cd        40.7568241772       17.1417259650       23.0499459959
  S        24.5068345623       24.5008631397       30.3753079991
 Cd        40.4069984922       31.5192825524       31.5362148062
  S         9.9155420335       30.5291049751       15.6841538317
  S        12.8363404105       21.5534123829       15.6971083089
  S        15.7219949310       24.5191898726       15.6926499389
  S        18.6322659746       27.4148571084       15.6359092229
  S        21.5674625071       30.3516444308       15.6267368007
  S        24.4780652359       33.2534949638       15.6765338876
  S        27.4121356594       36.1323927091       15.6689346971
 Cl         6.5395552503       16.5155838895       21.6676601635
  S        30.3290499979       15.7642127842       33.2210156697
  S        18.6417371634       21.6539981021       39.1405978252
  S        21.5949160323       24.5418658692       39.2012901755
  S        24.4951389526       27.4900015521       39.2082587096
  S        36.1360965555       30.5702505534       12.8720026714
 Cd         8.0114581082       13.5620898130       25.5587094243
 Cd        11.3864375247       14.0316026048       25.8027150430
 Cd        14.2060758725       17.1416215129       25.9568870721
 Cd        17.1489104871       20.0878484282       25.9685332936
 Cd        20.0887620747       23.0277165170       25.9689300650
  S        27.4794217488       30.4381313847       39.1759064957
  S        30.5413905821       33.3065501181       39.1301519694
  S        24.2372112263       12.6586841772       12.6759898746
  S        33.3791419770       12.6743351873       21.5525734087
 Cl         6.5704450061       27.3148209103       32.5294708325
  S        27.3512558719       15.5951141881       12.6957451344
  S        18.6346566317       27.4144164783       27.4110387928
  S         9.1169301345       14.5657362898       20.0383169170
  S        12.7001731353       18.5132291888       18.5086827809
  S        15.6956616884       21.5740623427       18.6462405141
  S        18.6279379986       24.4993655465       18.6246092074
  S        21.5588298062       27.4313979620       18.6043839837
  S        24.4910856875       30.3280451791       18.6081913672
  S        21.6033095625       30.3583691305       27.3804409798
 Cl        23.5645172142       12.9805676474        6.8039184440
 Cl        27.2616575978       15.3906812544        7.1915303526
 Cl        30.1894422869       18.5464980904        6.9094344377
 Cl        33.5922951873       21.8197261945        7.1145216046
 Cl        36.0993497285       25.4191173001        6.9207414233
  S        12.8549363977       18.3934245343       12.8770835918
  S        27.4085323406       33.2610345191       18.6219366277
  S        30.4700541262       36.2751610240       18.4627433469
  S        34.5162130428       39.8222877905       20.1208393129
  S        15.7798095160       21.5329771428       12.8289298428
  S        14.7329251509       34.2791524234       34.2672829092
  S        21.5534808600       33.3475404093       24.4576036591