    1116
 i =       68, E =    -33630.5707859286
 In         7.0204641099       10.0541923235       19.4046373766
 In         7.3430611716       13.1805632723       16.2176232692
 In         6.8583766290       13.3369357783       22.8323092903
 In         7.3437199209       16.2787434858       13.1761184249
 In         7.1191692269       16.5255490016       19.6345231697
 In         6.7244037211       16.6263108194       26.1123554746
 In         7.0219373430       19.4097189954        9.9929645401
 In         7.1160471724       19.6420578744       16.5326992607
 In         7.1088606483       19.8119126721       22.9240688296
 In         6.7774763241       19.9592638061       29.3860449957
 In         6.8004379630       22.8293153568       13.3379451772
 In         7.1055419266       22.9161807891       19.8737253018
 In         7.1115332210       23.0873719796       26.1933095790
 In         6.7918236006       23.2440436085       32.6663058253
 In         6.7232497842       26.1006010815       16.6866665805
 In         7.1073052984       26.1898915551       23.1529761728
 In         7.1171074018       26.4293096577       29.4824037438
 In         7.0207823249       26.5992845485       36.0151360329
 In         6.7273688378       29.3830818045       19.9700963930
 In         7.1149284615       29.4777817505       26.4316827863
 In         7.3447980040       29.7858442154       32.8927019941
 In         6.8538300759       32.6623963347       23.2411160859
 In         7.3452607204       32.8345087374       29.7886327025
 In         7.0189529848       36.0128073872       26.6033463959
 In         9.9825449977        7.0306103764       19.4059574251
 In         9.9796893920       10.0495266979       16.3725748780
 In        10.0558234603       10.0572587812       22.9784697358
 In         9.9643283285       13.3430932841       13.3396362336
 In        10.1379770889       13.2579415710       19.8101446163
 In         9.9783177329       13.3246502755       26.2716470149
 In         9.9794063469       16.3721006090       10.0495786785
 In        10.2245552084       16.5368300807       16.5405365310
 In        10.0700995473       16.5177888198       23.0772152943
 In         9.9096713060       16.5314817671       29.5372995319
 In         9.9855545606       19.3998675037        7.0271899662
 In        10.1288413771       19.8156818724       13.2501470858
 In        10.2288608566       19.7945705236       19.7910692729
 In        10.0637093335       19.7127275625       26.3404501776
 In         9.9809505711       19.7385659591       32.7506328317
 In        10.0542381277       22.9835487205       10.0660699253
 In        10.0591208873       23.0743764867       16.5147865630
 In        10.2288383598       22.9991771336       23.0074226946
 In        10.0676346223       22.9333530837       29.5527610772
 In        10.0515206299       23.0795589151       35.9419216372
 In         9.9779013261       26.2598508132       13.3273780547
 In        10.0618804372       26.2910353468       19.7287979712
 In        10.2273465836       26.1991047092       26.2753524062
 In        10.1373199322       26.2039347999       32.7526864566
 In         9.9839396307       26.6010911776       38.9796944644
 In         9.9103036316       29.4754540763       16.5397348692
 In        10.0670609116       29.4839126171       22.9924970939
 In        10.2265783848       29.4707013691       29.4747347607
 In         9.9852714463       29.6321989394       36.0146496432
 In         9.9799853229       32.7375014463       19.8034883669
 In        10.1398720892       32.7496522186       26.2019134304
 In         9.9714750456       32.6653715028       32.6629572848
 In        10.0551756766       35.9477226973       23.0826596439
 In         9.9787258948       36.0152204860       29.6344992237
 In         9.9863293372       38.9807612921       26.5964297942
 In        13.1081847617        7.4179941196       16.2740642960
 In        13.3320750266        6.8638633890       22.8268344758
 In        13.3309838419        9.9821751131       13.3459243805
 In        13.2409339797       10.1428254242       19.8091954393
 In        13.2533328745        9.9856335696       26.2739876043
 In        13.3310186945       13.3417833326        9.9859194845
 In        13.2619087430       13.3317173184       16.6076995091
 In        13.2500913867       13.2613899423       23.1376210547
 In        13.1847472369       13.2492638334       29.5445688217
 In        13.1044112142       16.2167374518        7.4155506799
 In        13.2601652065       16.6033701817       13.3305878074
 In        13.3365143533       16.5284650584       19.8665555199
 In        13.2470705315       16.4583736780       26.3452705695
 In        13.2397791568       16.4578838906       32.7579971908
 In        13.2430004389       19.8040646144       10.1461095887
 In        13.3367435867       19.8123538825       16.5359065205
 In        13.3347374282       19.7261821478       23.0763537725
 In        13.2491014008       19.6639783525       29.5506819120
 In        13.2499867083       19.7383773035       36.0171250750
 In        13.3344652032       22.7574887772        6.8616953763
 In        13.2501975309       23.0884195587       13.3242237720
 In        13.3395290556       23.0691478843       19.7320760282
 In        13.3350214232       22.9290914116       26.2788497457
 In        13.2520461861       22.9173479871       32.7425225968
 In        13.3371121946       23.2427198432       39.1398165002
 In        13.2471043297       26.2590197858        9.9919660215
 In        13.2504616716       26.3441685168       16.5175296257
 In        13.3379063151       26.2744246771       22.9933646007
 In        13.3414620330       26.1911210897       29.4805180903
 In        13.2439641765       26.2135149894       35.8536533526
 In        13.1813666740       29.5400900365       13.2531672021
 In        13.2420238030       29.5479414168       19.7185904714
 In        13.3437444343       29.4753287294       26.1920041514
 In        13.2628049102       29.4581489402       32.6805861646
 In        13.1067895890       29.7900005343       38.6555526023
 In        13.1776099244       32.7449743951       16.4684934006
 In        13.2533801156       32.7410474448       22.9212462204
 In        13.2670354832       32.7383705880       29.4006389110
 In        13.3359793737       32.6624701552       36.0255799344
 In        13.2532814778       36.0169724338       19.7335902182
 In        13.2487390999       35.8691985000       26.2013883475
 In        13.3362428338       36.0270136999       32.6613797098
 In        13.3333359016       39.1402206730       23.1716527394
 In        13.1085155582       38.6543163014       29.7814860199
 In        16.2061492948        7.4114356898       13.1749530577
 In        16.5153031364        7.1824005026       19.6370491293
 In        16.6130289541        6.7880415735       26.1111305573
 In        16.3648147351       10.0539028647       10.0547759054
 In        16.5181870520       10.3002350817       16.5318685573
 In        16.4468658509       10.1338097189       23.0779230941
 In        16.4568579087        9.9843843969       29.5420113295
 In        16.2077127257       13.1722743629        7.4120375076
 In        16.5339546234       13.3285700446       13.3304286694
 In        16.5130646914       13.3497970412       19.8164475532
 In        16.4469611577       13.2532365428       26.3496279611
 In        16.4552366920       13.2489225415       32.8151303273
 In        16.5184037807       16.5293982969       10.3032180799
 In        16.5297996424       16.5409680180       16.5465172923
 In        16.5227116657       16.5274867414       23.0796132267
 In        16.4523398417       16.4536831815       29.5481562308
 In        16.4629549613       16.5334532628       36.0875464906
 In        16.5171229166       19.5721647518        7.1838853611
 In        16.5181576089       19.8152044382       13.3495911665
 In        16.5294731654       19.7998416811       19.7971470113
 In        16.5222460610       19.7201529478       26.2792864746
 In        16.4511713403       19.6600478736       32.7499310117
 In        16.6150925919       19.9620436232       39.2170708382
 In        16.4458866070       23.0697452377       10.1346866030
 In        16.5250395668       23.0798950112       16.5319345822
 In        16.5276609755       23.0066564165       23.0039372378
 In        16.5219457730       22.9259791892       29.4836461683
 In        16.4522320005       22.9284319815       35.8690469429
 In        16.6122294416       26.0399166115        6.7855620001
 In        16.4452491984       26.3417658856       13.2580315845
 In        16.5246126931       26.2735507839       19.7255976492
 In        16.5328517417       26.2023208080       26.2649433825
 In        16.5224711841       26.1941880231       32.6521325756
 In        16.5232205065       26.4274377382       38.8194244335
 In        16.4584420531       29.4718413724        9.9786610264
 In        16.4485212783       29.5438214370       16.4565788910
 In        16.5227539557       29.4757353499       22.9374734866
 In        16.5309857489       29.4699972667       29.4718599656
 In        16.5247076652       29.4801311946       35.7682251125
 In        16.4539114051       32.7542851521       13.2490877270
 In        16.4508398678       32.7459606493       19.6600361425
 In        16.5224740442       32.6535082239       26.1926876390
 In        16.5388905272       32.7384644700       32.7344502038
 In        16.2138464456       32.8915024797       38.6543488339
 In        16.4627765776       36.0204027645       16.5264992205
 In        16.4517563136       35.8683832155       22.9259508645
 In        16.5215036297       35.7747995996       29.4686472801
 In        16.3669041428       36.0195597200       36.0125909129
 In        16.6789576371       39.2155671197       19.9577985416
 In        16.5092902996       38.8761970001       26.3675624515
 In        16.2115800727       38.6547035953       32.8329703735
 In        19.3278507170        7.0222260257        9.9909796874
 In        19.5650142823        7.1805873338       16.5276554648
 In        19.8048376918        7.1119353090       22.9210985092
 In        19.8832879377        6.7847618133       29.3822280107
 In        19.3273893713        9.9901624338        7.0221811093
 In        19.7951372524       10.1445078738       13.2471012967
 In        19.7281940074       10.2321153207       19.8041665721
 In        19.6641646219       10.0661510336       26.2989329817
 In        19.7223561707        9.9856987411       32.7470516208
 In        19.7899529356       13.2421001286       10.1441230056
 In        19.8072108859       13.3525496064       16.5290589992
 In        19.7221310616       13.3398224925       23.0734308797
 In        19.6541258839       13.2475974108       29.5486179391
 In        19.7263143228       13.3215963360       36.0200743400
 In        19.5684292790       16.5254204486        7.1826979482
 In        19.8061279002       16.5294205378       13.3575250637
 In        19.7329054754       16.5401783147       19.7997147057
 In        19.7213070933       16.5277410627       26.2806569461
 In        19.6535903123       16.4566229478       32.7510943871
 In        19.8843853630       16.6260921229       39.2202685094
 In        19.7291927799       19.8011378907       10.2293729278
 In        19.7360545671       19.8002412012       16.5444289312
 In        19.7348943050       19.7943712183       23.0088220742
 In        19.7231129268       19.7195891508       29.4744202952
 In        19.7093016306       19.7165901640       35.9351469481
 In        19.8043202167       22.9105890816        7.1152340562
 In        19.7249712212       23.0703306628       13.3412198060
 In        19.7976755972       23.0061339430       19.7885224481
 In        19.7332882069       22.9997473885       26.2633001320
 In        19.7221831551       22.9313210043       32.6608759898
 In        19.8027577287       23.0907728710       38.8861900298
 In        19.6624271417       26.2861216258       10.0651064291
 In        19.7200098116       26.2781899187       16.5307829161
 In        19.7347751193       26.2689767760       23.0063121119
 In        19.7922087739       26.2006932153       29.4683389552
 In        19.7306387464       26.2029482481       35.7695510458
 In        19.8834129847       29.3734383905        6.7848885096
 In        19.6616195830       29.5441482312       13.2514180533
 In        19.7234366140       29.4738813009       19.7201287897
 In        19.7334559633       29.4631358733       26.2609431442
 In        19.8010964234       29.4792797021       32.6523941376
 In        19.6318767025       29.4822772972       38.8149885263
 In        19.7288335006       32.6779695446        9.9864647347
 In        19.6561205423       32.7472791374       16.4502999338
 In        19.7221363890       32.6587303022       22.9336534932
 In        19.8026807623       32.6573715362       29.4817385851
 In        19.7935357555       32.7540857844       35.8613518705
 In        19.7276571791       36.0105790931       13.2558858021
 In        19.7157116661       35.9326169172       19.7139094568
 In        19.7279439251       35.7743595437       26.2015885139
 In        19.7980543632       35.8632573305       32.7507256179
 In        19.4037623395       36.0130922112       38.9789809974
 In        19.8893903296       39.2095419919       16.6185216543
 In        19.8094814004       38.8848556885       23.0905273820
 In        19.5711673772       38.8862829744       29.4730916307
 In        19.4012735318       38.9804827051       36.0090105416
 In        22.7538325843        6.8623823533       13.3403204871
 In        22.8465140271        7.1122339574       19.8158165072
 In        23.0732867747        7.1115115609       26.1944035190
 In        23.1672617983        6.8547359496       32.6680832373
 In        22.9109223745       10.0530856020       10.0549904158
 In        23.0062752398       10.1253980558       16.5175828476
 In        22.9911455733       10.2267767885       23.0018886736
 In        22.9176619746       10.0748584665       29.5451274966
 In        23.0088809874       10.0590127133       35.9432735314
 In        22.7479970036       13.3330623580        6.8592469070
 In        23.0779873964       13.2558168001       13.2614849262
 In        23.0028678621       13.3450032788       19.7336467225
 In        22.9167870951       13.3332484926       26.2806786266
 In        22.8586606258       13.2577979271       32.7474537352
 In        23.1667448550       13.3353749018       39.1429006905
 In        23.0061937132       16.4620149385       10.1283223448
 In        23.0634122940       16.5283821609       16.5294063256
 In        22.9942320057       16.5317525566       23.0000336367
 In        22.9158640877       16.5306714472       29.4744917194
 In        22.9280029558       16.5141977175       35.9269247549
 In        22.8503477075       19.8067387957        7.1160850830
 In        23.0054795986       19.7277594004       13.3425147054
 In        22.9951403589       19.7325018212       19.7929367382
 In        22.9862758200       19.7938897261       26.2039621036
 In        22.9261846253       19.7269327993       32.6627754399
 In        23.0813166817       19.8136150683       38.8949909582
 In        22.9975791344       22.9969011266       10.2264980195
 In        22.9956076794       22.9935806679       16.5355439643
 In        22.9968570855       23.0040440559       23.0090907436
 In        22.9970891772       23.0033922466       29.4719547416
 In        22.9982192032       23.0034246351       35.7717489959
 In        23.0827079687       26.1878644921        7.1102899276
 In        22.9265248786       26.2749480019       13.3381209989
 In        22.9889082024       26.2068149398       19.7923891230
 In        22.9971287778       26.2677470959       26.2574382670
 In        23.0086346785       26.2723889615       32.6616129277
 In        22.8492668930       26.1902737986       38.8835204594
 In        22.9323513237       29.4796045299       10.0746245920
 In        22.9228148212       29.4724273936       16.5279688143
 In        22.9923027715       29.4698740157       23.0084378590
 In        23.0642534721       29.4749656934       29.4749322844
 In        23.0689670489       29.5448418106       35.8680903775
 In        23.1728284851       32.6614824820        6.8590860497
 In        22.9131086790       32.7359126200       13.2519778861
 In        22.9300826608       32.6595031485       19.7250241647
 In        23.0085480843       32.6619316661       26.2732035256
 In        23.0776248086       32.7522081682       32.7425938967
 In        22.8242869301       32.6650191099       39.1373701656
 In        23.0169295682       35.9410688808       10.0588218575
 In        22.9234206256       35.8666090849       16.4559909407
 In        22.9979288120       35.7694291372       23.0008691596
 In        23.0070637251       35.9306191323       29.4838775404
 In        22.9185883399       35.9450335556       35.9439613077
 In        23.1734996826       39.1352357428       13.3340954285
 In        23.0843900386       38.8877806705       19.8071513872
 In        22.8937107542       38.8863429690       26.1863514683
 In        22.8252972096       39.1388624909       32.6620803408
 In        26.0272041711        6.7831302065       16.6788247470
 In        26.1227164460        7.1101178869       23.1441791879
 In        26.3630527453        7.1149061621       29.4803012965
 In        26.5217501174        7.0215558818       36.0158840516
 In        26.1916137214        9.9786130286       13.3309219744
 In        26.2736207548       10.0680961665       19.7302500265
 In        26.1999160748       10.2285401921       26.2753906414
 In        26.1888418409       10.1369441564       32.7483257152
 In        26.5255287394        9.9882651008       38.9800992739
 In        26.1939445010       13.2534307835        9.9846634577
 In        26.2822191814       13.2506830874       16.5155701368
 In        26.2114109459       13.3428354028       22.9932959952
 In        26.1389997144       13.3394621223       29.4850258925
 In        26.1851430861       13.2544997397       35.8614539385
 In        26.0245104699       16.6072959401        6.7847953477
 In        26.2825776223       16.4520555144       13.2546117214
 In        26.2710744680       16.5242011930       19.7275981414
 In        26.1997469436       16.5334243869       26.2597346382
 In        26.1343525124       16.5247453868       32.6634963237
 In        26.3600396671       16.5278108489       38.8826532965
 In        26.2675083576       19.6638325377       10.0680398497
 In        26.2742198350       19.7231309787       16.5274192002
 In        26.2067625217       19.7373039801       23.0006232510
 In        26.1970055460       19.8016375746       29.4724065700
 In        26.2058706612       19.7924200641       35.7690200073
 In        26.1798902831       23.0720733469        7.1121804429
 In        26.2671736405       22.9274401794       13.3430590844
 In        26.2025509875       22.9900777749       19.7977102856
 In        26.2030858592       23.0110153962       26.2549429673
 In        26.2667171150       23.0678553171       32.6582894145
 In        26.1818816530       22.9200582410       38.8927698238
 In        26.1991057349       26.2054979310       10.2292228113
 In        26.1989372242       26.2021595999       16.5359389908
 In        26.2011054851       26.2602499378       23.0156852438
 In        26.2735381956       26.2762876872       29.4768798315
 In        26.2743523504       26.2856406058       35.9366190477
 In        26.4274831664       29.4725169382        7.1239529579
 In        26.1810758661       29.4711161942       13.3454632942
 In        26.2000265776       29.4666926375       19.7982199005
 In        26.2756575702       29.4809376320       26.2783497357
 In        26.2823105930       29.5452607775       32.7480783981
 In        26.0369749097       29.3186879688       39.2161781388
 In        26.1946525412       32.7434230131       10.1409175596
 In        26.1842020043       32.6511707770       16.5302790990
 In        26.2715006522       32.6577375325       23.0722329929
 In        26.2826902077       32.7536943442       29.5425070269
 In        26.2627648309       32.7470504990       36.0154439097
 In        26.5962072723       35.9451350274        7.0215258321
 In        26.1946084376       35.8574203050       13.2397522870
 In        26.2029592274       35.7698845329       19.7972487979
 In        26.2775999729       35.9289245618       26.2814739937
 In        26.2612872175       36.0150742927       32.7396782936
 In        26.5971475316       38.9679395854        9.9864171122
 In        26.3609343631       38.8154032373       16.5295339926
 In        26.1919971346       38.8870339139       22.9150437263
 In        26.0381217745       39.2165368955       29.3244039605
 In        29.3117880408        6.7784924718       19.9673851247
 In        29.4713204901        7.1153966987       26.3751093454
 In        29.7146263724        7.3439626854       32.8942299928
 In        29.4657836024        9.9188264455       16.5301189166
 In        29.4723372913       10.0696300849       22.9908985264
 In        29.4598346972       10.2218927201       29.4700261451
 In        29.5668561395        9.9812571536       36.0258133162
 In        29.4677867864       13.1820804825       13.2532921347
 In        29.4761913011       13.2458921219       19.7189674841
 In        29.4606628211       13.3445579518       26.1952428883
 In        29.3860950106       13.2714768349       32.7352858206
 In        29.7146370027       13.1661031826       38.6560555969
 In        29.4677459273       16.4490888907        9.9841964700
 In        29.5420395377       16.4469126010       16.4537011891
 In        29.4649052223       16.5266939564       22.9347966380
 In        29.3962597277       16.5278603939       29.4733730672
 In        29.4590594651       16.5367539217       35.7729979596
 In        29.3091482865       19.8282151991        6.7856160646
 In        29.5330343831       19.6518019658       13.2524208914
 In        29.4706739425       19.7235983184       19.7257568129
 In        29.3969778673       19.8030945919       26.2581196989
 In        29.4608764631       19.8100790811       32.6625892139
 In        29.4735856658       19.6324217241       38.8798614143
 In        29.4770135465       22.9236679791       10.1369661223
 In        29.4652088000       22.9289366137       16.5369625452
 In        29.4614760107       22.9946677958       23.0053947951
 In        29.4691510938       23.0778930474       29.4770907098
 In        29.4820790956       23.0682021857       35.9296459503
 In        29.4726820779       26.3533279228        7.1825671232
 In        29.4659509678       26.1880188369       13.3498387862
 In        29.4090686983       26.1994194538       19.7992969096
 In        29.4702002817       26.2768936138       26.2791293846
 In        29.4839512458       26.3435072665       32.7472866579
 In        29.3742345887       26.1136535275       39.2166112061
 In        29.4681910881       29.4696579022       10.2933622016
 In        29.4543075881       29.4547263021       16.6014019747
 In        29.4732829057       29.4742605680       23.0782761799
 In        29.5390349291       29.5460026156       29.5438768381
 In        29.4660752250       29.5368331659       36.0236316773
 In        29.7876088051       32.8213712048        7.3481813456
 In        29.3977523483       32.6714352450       13.3276486932
 In        29.4678397342       32.6534842267       19.8195664781
 In        29.5444999756       32.7444677480       26.3425609338
 In        29.5310663875       32.7578136446       32.7503118610
 In        29.6276747397       35.9486870002        9.9887484031
 In        29.4697427129       35.7011882621       16.5327565385
 In        29.5431671869       35.8673063370       23.0768662107
 In        29.4691830662       36.0204908501       29.4748937185
 In        29.7317856097       38.5805381450       13.1665390925
 In        29.4725913657       38.8141065257       19.6348404406
 In        29.3815549344       39.2116912016       26.1072482790
 In        32.6600593902        6.8596479634       23.1691094742
 In        32.8162368826        7.3422224130       29.7878043268
 In        32.6739029697        9.9864978124       19.7401814553
 In        32.7403756707       10.1358864508       26.2025225133
 In        32.5960250628        9.9603162131       32.6693785549
 In        32.7435772894       13.1826958153       16.4648365983
 In        32.6741233832       13.2497374152       22.9160109620
 In        32.6623718693       13.2682127073       29.4615490607
 In        32.5930090738       13.3354727449       36.0319253379
 In        32.7498191597       16.4449608109       13.2475452004
 In        32.7434179584       16.4457040123       19.6623595086
 In        32.5825267683       16.5223552643       26.1957776091
 In        32.6637090537       16.5985593729       32.7358783945
 In        32.8176393382       16.2154834315       38.6564836857
 In        32.6679417781       19.7284901974        9.9800367116
 In        32.7448030512       19.6524941943       16.4583287104
 In        32.6483441684       19.7249693751       22.9943025184
 In        32.5919254594       19.8124496856       29.4843411948
 In        32.7428976030       19.8066408531       35.8633661566
 In        32.5868453871       23.0905169714        6.8681714630
 In        32.6663836180       22.9234554237       13.3334200106
 In        32.6480073207       22.9319704778       19.7327194176
 In        32.6572043286       23.0663960968       26.2767786471
 In        32.6784786415       23.0857495287       32.7479799676
 In        32.6640410232       22.8292193858       39.1418052673
 In        32.7408205553       26.1959406927       10.1467608867
 In        32.6504856378       26.1873016091       16.5382729005
 In        32.6572078247       26.2730627009       23.0706926908
 In        32.7434154172       26.3394104405       29.5510208456
 In        32.6796731315       26.2667797370       36.0135628154
 In        32.8313298350       29.7219519967        7.3505957872
 In        32.6687508154       29.4001487896       13.3318908824
 In        32.6575041557       29.4663270638       19.8740565650
 In        32.7469795336       29.5448043365       26.3415025107
 In        32.7496652221       29.5389425019       32.8155456608
 In        32.6598430991       32.6544366810        9.9758764682
 In        32.6755224227       32.6738504744       16.6012494633
 In        32.7473872123       32.7388266251       23.0895247681
 In        32.7552929205       32.7548008999       29.5434506269
 In        32.6591567754       36.0172374377       13.3382716920
 In        32.7573918123       35.8601676454       19.8025281619
 In        32.7469139322       36.0117258023       26.2695312588
 In        32.8301229090       38.5815054611       16.2179461667
 In        32.6659413740       39.1355236081       22.8256550297
 In        35.9466370145        7.0177794336       26.6017341919
 In        35.9384169465       10.0595990396       23.0787212785
 In        35.9452295677        9.9799872937       29.6353701625
 In        36.0074197745       13.2505449443       19.8076979101
 In        35.7900428408       13.2430207871       26.2060855434
 In        35.9495780084       13.3357054571       32.6661174357
 In        36.0183061887       16.4502057675       16.5314549183
 In        35.8611765398       16.4532344082       22.9948989933
 In        35.6951337125       16.5221746406       29.4813881043
 In        35.9447834290       16.3658491141       36.0193992290
 In        36.0193774756       19.7282891544       13.3320464018
 In        35.8692916508       19.6537485841       19.7283465262
 In        35.7050339693       19.7342475423       26.2723540437
 In        35.8493187977       19.8031002169       32.7526060023
 In        35.9454815288       19.4021908552       38.9791790716
 In        35.6205921439       23.3113157131       10.3794589884
 In        35.8653606976       22.9250478569       16.5233946867
 In        35.7650147138       22.9934348500       23.0025686339
 In        35.8618583261       23.0597310518       29.5497331213
 In        35.9372528268       22.9845102700       35.9405896500
 In        36.0195475543       26.6004854530        7.0251978945
 In        35.8526981281       26.1958327334       13.2600164459
 In        35.7694857792       26.1992822305       19.7970121981
 In        35.9326010917       26.2770570129       26.2890045953
 In        36.0098861170       26.2570816561       32.7502132926
 In        35.9470437669       29.6280044437       10.0528349922
 In        35.7042624893       29.4684916092       16.5358367789
 In        35.9293066453       29.4807467590       23.0768558895
 In        36.0218232159       29.4703124095       29.5386816764
 In        36.0237247597       32.6540085803       13.3403132351
 In        35.8583840707       32.7452722279       19.8035908397
 In        36.0181566568       32.6750685325       26.2689689207
 In        36.0115456562       35.9494574364       16.3723606529
 In        35.9414265420       35.9415842716       22.9803339064
 In        36.0113747217       38.9679829693       19.4000938977
 In        38.9664431070        9.9829816641       26.6067815289
 In        39.1353855306       13.3314464374       23.2468704907
 In        38.5770167567       13.1024814977       29.7935368077
 In        39.2081079454       16.6106854869       19.9751193489
 In        38.8120049555       16.4588075910       26.4345325238
 In        38.5777558155       16.2084679363       32.8940113128
 In        39.2095963242       19.8168927027       16.6910318596