     608
 i =       76, E =    -22856.4176862092
 Cl         7.9514924739       13.4227522957       16.2705457917
 Cl         7.1366250295       14.2390903421       21.6607026693
 Cl         8.0877016549       15.6866428953       13.5260907102
 Cl         7.8903269086       16.6037633054       19.2921269275
 Cl         7.1415290220       17.2523372614       24.7337326565
 Cl         7.2195239923       18.3944612068       11.3439916247
 Cl         7.8895697369       19.1711818364       16.6674227836
 Cl         7.8973373574       19.6440395321       22.3502577401
 Cl         7.1404943217       20.3280727330       27.7333639223
 Cl         7.0987777518       21.5071260247       14.2629281997
 Cl         7.8498335471       22.2388092031       19.7491981146
 Cl         7.9036350581       22.7411247171       25.3875831183
 Cl         7.0450911076       24.5580206883       17.3503066774
 Cl         7.8804738619       25.3400713316       22.7550289709
 Cl         7.9617800848       25.8071159953       28.4141263243
 Cl         7.1292387559       27.6990003572       20.3669740751
 Cl         7.9623904168       28.3864557114       25.7171093043
 Cl         7.2626521743       30.8220506445       23.3536722800
 Ga         9.1018291634       11.8113471561       17.8811393534
 Ga         9.1994987853       14.8494475874       15.1631849993
 Ga         8.9394108053       15.0167557292       20.9189530988
 Ga         9.1863753909       17.7911255664       11.8036861271
 Ga         9.1842209297       17.9598742881       18.0391525653
 Ga         8.9427053727       18.0603523908       24.0242418751
 Ga         8.9335842561       20.8378230794       15.0295451831
 Ga         9.1809212840       20.9994265087       21.0827996124
 Ga         8.9430690680       21.1798613172       27.0687657989
 Ga         8.8677314499       23.8700656847       18.1336152349
 Ga         9.1858693181       24.1110906387       24.1225311830
 Ga         9.0276515433       24.3674439385       30.1829047991
 Ga         8.9348740186       26.9851727071       21.1734621433
 Ga         9.2794979214       27.2409989094       27.2352220502
 Ga         9.0199250243       30.1005131500       24.2925355622
 Cl        11.1103958700        7.3007717064       18.7295580227
 Sb        10.1758421224       10.1664204538       16.1916352269
 Cl         7.3139535861       11.0823320471       18.7359047787
 Cl        10.6742441264       13.4138730089       14.0178125983
 Sb        10.3984730114       13.4059692034       19.4862843868
 Cl        10.6137813478       13.7331804252       25.2452242347
 Sb        10.2489348914       16.0866667384       10.2006381136
 Sb        10.6160532371       16.4479668260       16.5293830729
 Sb        10.3758247862       16.4848886204       22.5127156175
 Cl        10.6334554509       16.7425309987       28.2621411173
 Sb        10.3922948657       19.3889085630       13.4443488011
 Sb        10.5669728975       19.4872506872       19.5370205958
 Sb        10.3738774263       19.5595535573       25.5787520218
 Cl         7.2323397700       23.4273863826       30.8071644483
 Cl        11.1955431241       18.5517849643        7.2239110090
 Sb        10.3407148599       22.4341070431       16.5155774761
 Sb        10.5419178348       22.5343449515       22.5911388009
 Sb        10.3720853170       22.6533711139       28.6495450074
 Cl        11.1738322058       23.4220988858       34.7595154023
 Cl        10.4427110569       25.1092198581       13.7417315986
 Sb        10.3280122525       25.4915461436       19.5510872349
 Sb        10.5611273324       25.6125550758       25.6398696122
 Sb        10.2003914087       25.9882533391       31.7964882159
 Cl        10.4470130824       28.1940306349       16.8095557228
 Sb        10.3776767361       28.5729073303       22.6264930450
 Sb        10.3209427746       28.8945319083       28.8457474918
 Cl        11.2314755614       34.7920063140       23.4267838315
 Sb        10.1680590262       31.7879588333       25.8907932245
 Ga        11.8174952831        9.0997442387       17.8809988213
 Ga        11.8991098220       11.8935273300       15.5068139462
 Ga        11.8998590374       11.8987284825       21.0718160430
 Ga        12.2180953088       15.1778873100       11.5740068279
 Ga        11.9841042315       14.9284968539       18.1271708284
 Ga        11.8938086927       14.9268355778       24.0385806811
 Ga        11.9039870777       17.7092285085        9.0257198721
 Ga        11.9833630976       18.0285626690       14.9334891219
 Ga        11.9755379351       17.9594964420       21.0885101967
 Ga        11.8892497137       18.0443856029       27.1467095526
 Ga        11.9030963094       20.9266626455       11.8967708354
 Ga        11.9723486117       21.0086115898       17.9599353893
 Ga        11.9769472224       20.9961706006       24.1178940009
 Ga        11.8863448294       21.0939059526       30.1705465310
 Ga        11.8188206689       24.0262625720       14.9367443079
 Ga        11.9189747175       24.0427383820       20.9979951183
 Ga        11.9758998963       24.0382059406       27.1506102119
 Ga        11.8144524347       24.3707600649       32.9744871513
 Ga        11.8155116809       27.0612758956       17.9686487522
 Ga        11.9716820787       27.0692357162       24.0268524846
 Ga        11.8237418610       27.2281186571       30.1767813055
 Ga        11.8221294541       30.0967050163       21.0169830418
 Ga        11.6485269131       29.9386677992       26.9111609794
 Ga        11.7390256230       32.8920142325       24.2022414104
 Cl        13.4640043136        7.9717208337       16.2727136093
 Cl        14.2593185882        7.1242721681       21.6395869165
 Cl        13.4708688477       10.6791253770       14.0251751796
 Sb        13.4134638531       10.3986755964       19.4851359058
 Cl        13.7445826905       10.5395225780       25.2295880311
 Sb        13.1856834371       13.1322716582       10.3634825018
 Sb        13.5407555867       13.5338915178       16.5814196347
 Sb        13.4219064930       13.3958761517       22.5556117221
 Cl        10.5451339301       31.3753628287       19.8989056082
 Cl        13.6271534529       16.1899725886        7.9766231656
 Sb        13.4577538999       16.4725209136       13.4610238498
 Sb        13.4725936469       16.4645935545       19.5754643334
 Sb        13.3575191533       16.5021065244       25.5508414985
 Cl        17.2353299823       17.2864259759       34.8588208471
 Sb        13.4171108417       19.3755885601       10.3758450619
 Sb        13.4799838382       19.4918765173       16.4736836797
 Sb        13.4560510624       19.5005450380       22.5575489101
 Sb        13.3861128420       19.5752447958       28.6165270915
 Cl        14.2461844682       20.3382361319       34.8587029509
 Cl        14.2800768581       21.5758942580        7.1243527044
 Sb        13.3512340480       22.4974728912       13.4088618649
 Sb        13.4278902145       22.5126718493       19.5016550391
 Sb        13.4568493802       22.5388547172       25.5825826852
 Sb        13.3722880472       22.6721417846       31.6489828193
 Cl        13.6988579840       25.1127928393       10.4955210242
 Sb        13.3333170787       25.5369798276       16.4528623708
 Sb        13.4377939927       25.5401779392       22.5007910697
 Sb        13.3725640955       25.6452509706       28.6256547358
 Cl        13.5711445343       25.8048801148       34.0464032049
 Cl        13.6312058640       28.2666044528       13.6837003708
 Sb        13.3273134042       28.5978018884       19.4763070554
 Sb        13.4332747567       28.5668189641       25.5523534005
 Sb        13.1357552925       28.8893844125       31.7085839977
 Cl        13.7038791944       31.4670989260       16.8174737484
 Sb        13.3573525853       31.6174024392       22.5688135590
 Cl        13.6381748576       31.3168853971       28.3037935222
 Cl        14.2548241093       34.8896667587       20.3436128916
 Cl        13.4560446135       33.9489868861       25.9967720233
 Ga        14.9188321171        9.1958649679       15.1680986698
 Ga        15.0235787951        8.9375420875       20.9136529184
 Ga        15.1810760100       12.1455061413       11.6480360653
 Ga        14.9387382863       11.9833194087       18.1270546702
 Ga        14.9296559357       11.8322034495       24.0352159980
 Ga        14.8428268629       14.7730019685        9.2813529565
 Ga        15.0100653946       15.0054068594       14.9399934011
 Ga        14.9367426225       14.9288003355       21.0875305728
 Ga        15.1861916324       15.1920129429       26.8155628815
 Ga        14.9389816114       18.0352584690       11.9782284281
 Ga        14.9442239117       17.9690292250       18.0297690983
 Ga        14.9433700871       17.9664883712       24.0470715268
 Ga        14.8566124542       18.0425302604       30.1098066639
 Ga        15.0211574050       20.8338854832        8.9425463351
 Ga        14.9232300866       21.0717188334       14.9301668800
 Ga        14.9419677203       21.0045643874       21.0070062992
 Ga        14.9308235882       20.9955989595       27.0689482536
 Ga        14.9383170946       21.1747839822       33.0596405783
 Ga        14.8650349627       24.0270384690       11.8942139195
 Ga        14.8631660130       24.0468563234       17.9577623264
 Ga        14.9377291074       24.0368246738       24.0344102480
 Ga        14.8520324205       24.0405762607       30.0202782159
 Ga        14.8546869109       27.0676917829       14.9322309705
 Ga        14.8588424272       27.0683728620       20.9270946877
 Ga        14.9250168628       27.0584819961       27.0802720632
 Ga        14.7612634276       27.2381688637       32.7279155146
 Ga        14.8585748265       30.1065073886       17.9668195297
 Ga        14.8530984456       30.0201878336       23.9563324414
 Ga        15.0926720849       29.9336018770       30.4276624628
 Ga        14.9417724517       33.0552358976       21.0972034349
 Ga        14.9213656636       32.7300828571       27.0664032846
 Cl        15.7480758854        8.0663755659       13.5440429648
 Cl        16.6586062830        7.9057931860       19.2914318616
 Cl        17.3262604957        7.1325855919       24.6713014054
 Sb        16.1114912236       10.2100657380       10.2480459171
 Sb        16.4946410140       10.6154786370       16.5484802583
 Sb        16.5123801528       10.3609377149       22.4955641600
 Cl        16.7125922124       10.6158850503       28.2678036945
 Cl        16.2598982138       13.5823677859        7.9665126348
 Sb        16.4883850310       13.4497316746       13.4750898715
 Sb        16.4874189048       13.4809293771       19.5643898128
 Sb        16.4754240522       13.3521043359       25.5358452873
 Cl        16.7175927516       13.7495645258       31.3577300895
 Sb        16.4149542199       16.3921900019       10.5830098819
 Sb        16.4828902786       16.4530566938       16.5308333999
 Sb        16.4624521480       16.4591307517       22.5403113180
 Sb        16.4505648489       16.5022599304       28.6388465825
 Cl        16.6600465376       19.2173650721        7.9074167879
 Sb        16.4551465756       19.4980121463       13.5002011795
 Sb        16.4621317036       19.4882045881       19.5026211946
 Sb        16.4493591258       19.4839077408       25.5507724525
 Sb        16.4188330200       19.5590003785       31.6239330751
 Sb        16.4589305492       22.4336699958       10.4043306582
 Sb        16.4228110500       22.5279470798       16.4797453260
 Sb        16.4519207337       22.5167518421       22.5209214961
 Sb        16.4147330740       22.5382518555       28.5416521510
 Cl        16.6193116499       22.7284159423       34.0970404813
 Cl        17.2934936438       24.6252596778        7.1321363926
 Sb        16.3868058932       25.5404294847       13.4005065047
 Sb        16.4081510802       25.5308497788       19.4736390487
 Sb        16.4474197073       25.5532069589       25.5490682604
 Sb        16.3502288240       25.6062960217       31.4590892579
 Cl        16.7765583940       28.2252732370       10.5173489055
 Sb        16.3845010930       28.5926220404       16.4520147469
 Sb        16.4026421740       28.5126003341       22.4919927064
 Sb        16.4278439952       28.5625962525       28.6095796479
 Cl        16.2705269359       28.3779843996       34.0631239989
 Cl        16.7782074371       31.4635450959       13.7481185214
 Sb        16.4383340349       31.6136257809       19.5258068119
 Sb        16.4353729966       31.3790515167       25.5390182573
 Sb        16.1232918411       31.7992641235       31.8762285290
 Cl        17.3199092751       34.8808492257       17.3241737095
 Cl        16.6186141568       34.0809041804       22.7457522180
 Cl        15.9616285204       33.9291931952       28.5595895052
 Ga        17.8724111229        9.1836714814       11.8079326040
 Ga        18.0348720904        9.1876487228       18.0426863296
 Ga        18.1336151805        8.9364582815       23.9575020490
 Ga        17.7171632549       11.8954708535        9.0941293123
 Ga        18.0468148367       11.9820497624       14.9368800779
 Ga        17.9689095454       11.9789826921       21.0826019101
 Ga        17.9806166713       11.8914722207       27.1412442369
 Ga        18.0428361727       14.9332308846       11.9844357235
 Ga        18.0379970998       14.9405443564       18.0329403073
 Ga        17.9679548229       14.9392761148       24.0443215283
 Ga        17.9702345947       14.9273567930       30.1079307719
 Ga        17.9524751167       17.8913966728        9.1951577941
 Ga        17.9720258393       17.9686588870       15.0056193659
 Ga        17.9739414045       17.9667133567       21.0061178462
 Ga        17.9590607295       17.9647274223       27.0568116274
 Ga        17.9803753391       18.0601832821       33.0560661591
 Ga        17.9513446805       21.0021513558       11.9811707439
 Ga        17.9631249448       21.0023034159       17.9667483036
 Ga        17.9651884054       21.0005373164       24.0353836307
 Ga        17.8833909527       20.9966811745       30.0232802178
 Ga        18.0504003517       23.8759525152        8.9429421636
 Ga        17.8850614362       24.0469258764       14.9324125641
 Ga        17.9550109145       24.0389886082       21.0010383527
 Ga        17.9619935232       24.0367469918       27.0608969922
 Ga        17.8823357772       24.1040977280       32.8143551596
 Ga        17.8982348426       27.0676638281       11.8960423682
 Ga        17.8826807360       27.0687544761       17.9553777386
 Ga        17.9599492056       27.0600059126       24.0359071480
 Ga        17.9724595603       27.0767090485       30.0931869156
 Ga        17.8948711508       30.1028600485       14.9321731708
 Ga        17.8859732323       30.0213955442       20.9899249607
 Ga        17.9756199858       30.0187658701       27.1476204253
 Ga        17.7083855506       30.1010268932       33.0474849890
 Ga        18.0459768631       33.0560561259       18.0679580305
 Ga        17.9504357063       32.8124952783       24.0422291630
 Ga        17.7955471498       32.8880977367       30.2669604177
 Cl        19.2546047171        7.9006810796       16.6715709358
 Cl        19.7190666485        7.8974214510       22.3399903931
 Cl        20.3398588072        7.1447201907       27.7511564996
 Cl        18.5942196807       11.1228979751        7.3298455220
 Sb        19.4524771260       10.4056320810       13.4553768783
 Sb        19.5446101510       10.5834996444       19.5463250478
 Sb        19.5508821874       10.3834196099       25.5772278850
 Cl        19.8442790590       10.6464502703       31.3692342091
 Sb        19.4050780800       13.4104115431       10.4050206468
 Sb        19.5374143516       13.4654813383       16.4765975387
 Sb        19.5183452835       13.4639427954       22.5494233816
 Sb        19.4997507391       13.4230272528       28.6033064910
 Cl        20.2877430334       14.2901714917       34.8599589727
 Cl        19.2630668783       16.6141498012        7.8799180016
 Sb        19.5086004436       16.4479195095       13.5030631400
 Sb        19.5366370543       16.4697461064       19.5101536126
 Sb        19.4778746217       16.4521807997       25.5521713698
 Sb        19.4860463931       16.4935239326       31.6236477010
 Sb        19.4741146335       19.4247700627       10.5870378919
 Sb        19.5038949299       19.4814576708       16.4814678232
 Sb        19.4834865800       19.4834716276       22.5194999819
 Sb        19.4427422166       19.5039766457       28.5432747118
 Cl        19.6258870315       19.6686778108       34.0935207083
 Cl        19.6593674444       22.2693780837        7.8706010025
 Sb        19.4480581295       22.5150582898       13.4820215504
 Sb        19.4598713223       22.5090423439       19.4963520157
 Sb        19.4776483524       22.5186407282       25.5470132123
 Sb        19.4154221263       22.5437126616       31.4427302505
 Sb        19.4900031450       25.5070910364       10.3819845854
 Sb        19.4167968807       25.5479283347       16.4506841551
 Sb        19.4757079603       25.5462696088       22.5179880002
 Sb        19.4631393145       25.5542418885       28.5734547745
 Cl        19.2295727217       25.3400971199       34.1382063580
 Cl        20.3445508883       27.7328066701        7.1300179922
 Sb        19.4391167113       28.5987678474       13.3986798755
 Sb        19.4300541813       28.5271103816       19.4889138324
 Sb        19.4702924790       28.5309864994       25.5936154192
 Sb        19.3830074621       28.5879628092       31.6730421957
 Cl        23.5114222491       30.7943902238        7.2650744365
 Sb        19.4913528914       31.6053229299       16.4789056774
 Sb        19.4659815777       31.4129776485       22.5266047232
 Sb        19.3923962976       31.5974882649       28.6399569437
 Cl        20.3407128688       34.8673768149       14.2773364713
 Cl        19.6804813011       34.0907733894       19.6964335330
 Cl        19.2254603547       34.0972049110       25.3746076444
 Cl        18.5524448601       34.8009978834       30.7501378877
 Ga        20.9184073120        8.9428577463       15.0315437434
 Ga        21.0768581347        9.1932041852       21.0794449719
 Ga        21.1722593110        8.9447118526       27.0592303628
 Ga        21.0023924874       11.9097110294       11.9018557061
 Ga        21.0820149064       11.9767848175       17.9617744928
 Ga        20.9978931959       11.9776010000       24.1165581917
 Ga        21.0106249777       11.8962191893       30.1033295991
 Ga        20.8365372218       15.0091324864        8.9407254146
 Ga        21.0831567547       14.9243780195       14.9302476603
 Ga        21.0651425875       14.9406221799       21.0053884146
 Ga        20.9851575283       14.9327048722       27.0702339747
 Ga        21.0860899115       15.0156006048       33.0582180194
 Ga        21.0640096425       17.8934797738       11.9856128157
 Ga        21.0656490394       17.9643981860       17.9652360126
 Ga        20.9980058478       17.9672334892       24.0358432357
 Ga        20.9208245028       17.9600005605       30.0221401803
 Ga        20.9373998900       20.9882108014        9.1915890724
 Ga        20.9977033961       20.9943559340       14.9421845742
 Ga        20.9984365078       21.0010445982       21.0017927501
 Ga        20.9974860150       21.0031115117       27.0558346489
 Ga        20.9222291501       21.0018208526       32.8128111684
 Ga        20.9229556094       24.0491552918       11.9827138008
 Ga        20.9268517879       24.0379747616       17.9696241449
 Ga        20.9964673110       24.0379334356       24.0406981118
 Ga        21.0015175443       24.0458871196       30.0313843293
 Ga        21.0869619765       26.9857313284        8.9452954335
 Ga        20.9114173561       27.0712682855       14.9288998678
 Ga        20.9914956021       27.0616457187       21.0061449312
 Ga        21.0100695583       27.0765316683       27.1419992543
 Ga        20.8265283079       26.9833864910       33.1227815213
 Ga        20.9924516269       30.1027478033       11.9057804240
 Ga        20.9186691258       30.0207495583       17.9602021785
 Ga        21.0010422631       30.0193837901       24.1109651562
 Ga        20.9822730446       30.0928834657       30.1740075691
 Ga        21.0872240614       33.0547545258       15.0254310263
 Ga        20.9905597114       32.8052637501       21.0022602343
 Ga        20.8333436046       33.0558103354       27.0575460084
 Cl        21.6064744931        7.1146018596       14.2699572849
 Cl        22.3153345153        7.8855230433       19.7401494865
 Cl        22.7310380620        7.9188904574       25.3867461866
 Cl        23.3523020123        7.2662500333       30.8745845934
 Cl        18.4932931155        7.2218338746       11.3546461881
 Sb        22.5131623480       10.3789355947       16.5004669365
 Sb        22.5824473468       10.5833564230       22.5882040098
 Sb        22.6213606185       10.3948361561       28.6380821492
 Cl        23.2866153038       11.2699146394       34.7615523685
 Cl        21.6149173608       14.2413728302        7.1474749860
 Sb        22.5555323577       13.3958041118       13.4016068737
 Sb        22.5818830792       13.4576609981       19.4869365963
 Sb        22.5314057416       13.4661768813       25.5849403086
 Sb        22.5462624180       13.4406635609       31.6083503451
 Sb        22.4673872454       16.4332691910       10.3838675315
 Sb        22.5712529231       16.4312425507       16.4610713767
 Sb        22.5319047175       16.4635072882       22.5308160175
 Sb        22.4741989844       16.4787377986       28.5425492932
 Cl        22.6747355302       16.6528261771       34.1060810618
 Cl        22.2614267201       19.6877714006        7.9004161138
 Sb        22.5284265275       19.4311277036       13.4905814882
 Sb        22.5316199843       19.4893015883       19.4934456855
 Sb        22.5105748229       19.4841159238       25.5468199234
 Sb        22.4712306638       19.5062490699       31.4209368351
 Sb        22.4715192981       22.4934256012       10.5883729062
 Sb        22.4701454626       22.5065139501       16.4919130001
 Sb        22.5024320785       22.5095971751       22.5363972575
 Sb        22.5089444505       22.5487642479       28.5286849844
 Cl        22.2344569350       22.2783568686       34.1289974813
 Cl        22.7061875894       25.3467973072        7.8828407032
 Sb        22.4698975797       25.5537036051       13.4674408661
 Sb        22.4795670069       25.5083983459       19.5144745097
 Sb        22.4890546002       25.5655725415       25.5740247668
 Sb        22.4186988463       25.5152540801       31.6576944000
 Sb        22.5539450129       28.6079331360       10.3813147042
 Sb        22.4534578995       28.5225469766       16.4694739381
 Sb        22.5032396893       28.5296808818       22.5656752863
 Sb        22.5117729194       28.6028141093       28.6444258590
 Cl        21.6271335018       27.6806694708       34.9345013944
 Sb        22.5505823299       31.6029897567       13.4463178352
 Sb        22.5078398635       31.4113236898       19.4862095275
 Sb        22.4290893577       31.6244268459       25.5595250492
 Cl        18.6205614747       30.8091335330       34.8221535478
 Cl        23.3318907749       34.7885646906       11.2889923884
 Cl        22.7036635608       34.0883372401       16.6637461788
 Cl        22.2755944597       34.1116622041       22.3036585651
 Cl        21.6029873055       34.8828797211       27.7466855046
 Ga        23.9555536878        8.9409381343       18.1319771181
 Ga        24.1212465245        9.1948109291       24.1272353256
 Ga        24.2937039376        9.0301127998       30.1788177984
 Ga        24.1026153137       11.8942606406       14.9348820778
 Ga        24.1174693950       11.9757635450       21.0002288968
 Ga        24.0290971606       11.9747089201       27.1326817242
 Ga        24.1297954348       11.8116051881       32.8985957366
 Ga        24.0958717100       14.9234853479       11.8931520308
 Ga        24.1168911432       14.9271120256       17.9565736395
 Ga        24.0412115163       14.9420463014       24.0401303590
 Ga        23.9526982730       14.9263872798       30.0208897990
 Ga        23.8650709688       18.0532240307        8.9341767818
 Ga        24.1090034609       17.8934194528       14.9295398333
 Ga        24.0410148302       17.9663256829       21.0024296634
 Ga        24.0318739692       17.9722795085       27.0604932839
 Ga        23.9733444994       17.9682064828       32.8137744402
 Ga        24.0262790786       20.9242929855       11.9835054126
 Ga        24.0347873900       20.9982000503       17.9667588190
 Ga        24.0336389321       21.0025521672       24.0405213642
 Ga        24.0373932899       21.0719596619       30.0256424160
 Ga        23.9651381506       24.0319832116        9.1920763738
 Ga        23.9577111428       24.0341360145       15.0045626811
 Ga        24.0289291118       24.0374492007       21.0695975106
 Ga        24.0419043110       24.1085393782       27.0772474480
 Ga        23.8657257471       23.9389708211       33.1258181594
 Ga        23.9417965185       27.1383713934       11.9791201403
 Ga        23.9589343958       27.0578635043       18.0337203604
 Ga        24.0415280524       27.0717005648       24.1114948365
 Ga        24.0236474171       27.0673022819       30.1776822640
 Ga        24.2003651876       30.2601568524        9.1886082260
 Ga        23.9463240571       30.0221261118       14.9470028230
 Ga        24.0336998258       30.0217774654       21.0797386186
 Ga        24.0273384805       30.1053107078       27.0785822099
 Ga        24.2041039713       32.9886499117       11.9770227420
 Ga        24.0326026023       32.8083569629       17.9636956663
 Ga        23.8699762113       33.0597358975       23.9503834970
 Cl        24.6452410431        7.1157442596       17.3516385868
 Cl        25.3658044054        7.9052811995       22.7677378999
 Cl        25.7282596284        8.0172840360       28.4624682982
 Cl        25.2121016736       13.7512115865       10.5214767601
 Sb        25.5751531306       10.3796151226       19.5612072320
 Sb        25.6323067537       10.5794649515       25.6452587066
 Sb        25.8556701326       10.2379459607       31.8507407692
 Cl        24.6324036111       17.3347687350        7.1163288487
 Sb        25.6106221962       13.4010910963       16.4524983947
 Sb        25.5827147032       13.4631149117       22.5405355104
 Sb        25.5421723749       13.4705778966       28.5982002617
 Cl        25.8659924820       13.5101891605       34.0285869387
 Sb        25.6153532442       16.4381993627       13.3832524344
 Sb        25.5638179385       16.4591782817       19.4911891811
 Sb        25.5457041084       16.4578202826       25.5619329116
 Sb        25.5098966491       16.4731966331       31.4130152463
 Sb        25.4634970737       19.5036015698       10.3714177337
 Sb        25.5489044299       19.4559211525       16.4567617385
 Sb        25.5426114259       19.4874178370       22.5246163148
 Sb        25.5298660118       19.5307525627       28.5396951448
 Cl        25.2962810335       19.2571930044       34.0975233116
 Cl        25.2977392032       22.7340197102        7.9105562030
 Sb        25.4624681188       22.4506677512       13.5264320154
 Sb        25.5091595178       22.5068410490       19.5274707640
 Sb        25.5169436646       22.5425964973       25.5682118631
 Sb        25.4738519420       22.4909051472       31.6605070024
 Sb        25.4811141297       25.5643576460       10.5899783725
 Sb        25.4893507367       25.5407793568       16.5059032942
 Sb        25.5426275890       25.5474150483       22.5772220887
 Sb        25.5415977001       25.5552929948       28.6535470015
 Cl        24.6072980430       24.6390251415       34.9593017661
 Cl        26.1378601583       28.6887597795        8.2466566087
 Sb        25.5137773351       28.5685092142       13.4606986939
 Sb        25.5116209517       28.5129592140       19.5488879241
 Sb        25.5579496107       28.5971230473       25.5813933634
 Cl        25.1591117335       28.2308673268       31.5400575773
 Sb        25.8396810737       31.8996678558       10.2928383487
 Sb        25.5465684816       31.4304477759       16.4315881530
 Sb        25.4910437766       31.6250077237       22.4997659661
 Cl        25.1652782727       31.4742360397       28.2376605871
 Cl        25.7187056111       34.0515237366       13.6794851114
 Cl        25.3262897924       34.0966724760       19.2772665310
 Cl        24.6332539804       34.8804489555       24.6682263994
 Ga        27.0619970484        8.9462006198       21.1761671483
 Ga        27.2372351029        9.3557267463       27.3127414093
 Ga        27.1390282234       11.8935537196       17.9771145948
 Ga        27.1441162135       11.9836551751       24.0489279483
 Ga        26.9112231669       11.7287636487       30.0200049345
 Ga        27.1439536964       14.9262836183       14.9312460662
 Ga        27.0743770542       14.9274421328       20.9900304624
 Ga        27.0747183533       14.9304347589       27.0639351015
 Ga        26.9847633083       14.9300012789       32.8036938083
 Ga        27.0744285292       17.9673264146       11.8267914352
 Ga        27.0714847889       17.9531201486       17.9613692914
 Ga        27.0549318183       17.9682553640       24.0409286707
 Ga        27.0731625850       18.0432948108       30.0236082927
 Ga        26.9020469484       21.0949467982        8.9448390890
 Ga        27.0758086877       20.9195582357       14.9238581973
 Ga        27.0597753014       20.9984608184       21.0108843656
 Ga        27.0658606459       21.0788432672       27.0803359180
 Ga        26.9752303136       20.9049500779       33.0612612659