 608
i =       26, E =    -18286.8204708254
 In        10.9210452167       13.5108510482       19.7540890109
 In        10.9306889607       16.7257701329       16.8714271830
 In        10.8349059059       16.5652779551       22.6659823130
 In        10.9964660296       19.5435186870       13.5265723873
 In        11.0100481656       19.6087410710       19.6794721517
 In        10.7903349085       19.5264075547       25.6186844118
 In        10.7887374163       22.5675631460       16.5683923017
 In        11.0082504718       22.5128259451       22.5852295021
 In        10.7854002420       22.5165666402       28.5358706116
 In        10.7820934722       25.4786689268       19.5405970319
 In        11.0009825037       25.4749780583       25.5314867212
 In        10.8668755942       25.6134867014       31.4850925923
 In        10.7799029948       28.4296348426       22.4954590965
 In        11.0814203312       28.5124580865       28.5210679846
 In        10.7919706316       31.4063325412       25.4712077433
 In        13.5890970518       10.8504584677       19.7021968469
 In        13.6660611664       13.6285193570       17.2747374842
 In        13.7477351880       13.6770017428       22.5833814619
 In        13.9158134814       16.8703595609       13.4324883233
 In        13.7631577281       16.6347705978       19.7541280859
 In        13.7288581576       16.5776144668       25.5174297646
 In        13.6023070458       19.5389364111       10.8613354508
 In        13.7587034950       19.6602403724       16.6327410200
 In        13.7507844670       19.5306227630       22.6478846698
 In        13.6814655244       19.6029411007       28.4544900972
 In        13.7347806165       22.5017624173       13.7379122632
 In        13.7513325778       22.5660500316       19.5641523459
 In        13.7459453993       22.4890666178       25.5437474911
 In        13.6733111866       22.5756221728       31.3273113387
 In        13.6721703444       25.4624930529       16.6396586071
 In        13.7443290534       25.4657484960       22.4949182778
 In        13.7426606660       25.4486276207       28.4419622477
 In        13.5161009752       25.6116657800       34.1318248772
 In        13.6666089595       28.3589128493       19.5918552340
 In        13.7358178034       28.3805121537       25.4015307314
 In        13.6044796919       28.5152632307       31.3946116655
 In        13.6664795549       31.2588481430       22.5018520112
 In        13.3606318158       31.1729487687       28.2009633218
 In        13.4487361608       34.0589267453       25.4478257269
 In        16.7986135562       10.9186533763       16.8692534753
 In        16.6397962071       10.7797726043       22.6548170150
 In        16.8759493224       13.9017847934       13.4298350072
 In        16.6523608499       13.7509394929       19.7575489026
 In        16.6407237309       13.6758453817       25.4808378534
 In        16.5489170333       16.5452650288       11.0747162549
 In        16.6923584302       16.6600345365       16.6428912341
 In        16.6531484030       16.6400426454       22.5870530794
 In        16.8831196245       16.8770958389       28.1904260795
 In        16.6350096892       19.6239670344       13.7656989657
 In        16.6494080325       19.5974260759       19.6129236408
 In        16.6580297208       19.5825113512       25.4672981846
 In        16.5643734185       19.6032595984       31.3251015351
 In        16.5623861834       22.5721189989       10.8489899209
 In        16.6348907668       22.5581194234       16.6486689651
 In        16.6456272963       22.5109419218       22.5437668994
 In        16.6311639426       22.4946403855       28.3725576923
 In        16.4783955857       22.5067245911       34.2147998144
 In        16.6237952834       25.4624841340       13.7337955883
 In        16.6264563762       25.4633876378       19.5486898475
 In        16.6424029304       25.4500593068       25.4608763606
 In        16.5579441804       25.4401661250       31.2584804842
 In        16.5727162664       28.3761031616       16.6364739168
 In        16.6255813161       28.3650398270       22.4815853106
 In        16.5718472606       28.3732643761       28.4243622716
 In        16.4797677128       28.5122955834       33.9127204712
 In        16.5689975690       31.2735040356       19.5353818800
 In        16.5465640457       31.2419532696       25.3815491027
 In        16.7973124448       31.1714072163       31.6308031560
 In        16.4792137405       34.1671355579       22.4313239817
 In        16.7152339995       34.0665177822       28.2706030629
 In        19.5746206875       10.9554170252       13.5231444054
 In        19.6716271269       11.0060004710       19.6800970277
 In        19.5928311889       10.7812691804       25.6102029374
 In        19.5331059094       13.5905528632       10.8628777426
 In        19.6833665904       13.7519814766       16.6288862638
 In        19.5797772698       13.7489711636       22.6333385017
 In        19.6069077840       13.6798278033       28.4458650692
 In        19.6202823754       16.6361946416       13.7670035183
 In        19.6063249604       16.6437685428       19.6099292667
 In        19.6000448273       16.6460711261       25.4664178446
 In        19.5544394271       16.5842719355       31.3283262033
 In        19.5326601935       19.5377882837       11.0126762578
 In        19.5842734788       19.5819646449       16.7053319864
 In        19.5946514320       19.5640189739       22.5323990067
 In        19.5877646504       19.5952205908       28.3653786110
 In        19.4493150334       19.5216372131       34.2105258974
 In        19.5324729306       22.5198288641       13.7748589196
 In        19.5486952090       22.5098877273       19.6093336999
 In        19.5881490924       22.5083715993       25.4499996110
 In        19.4646877108       22.4827999786       31.2563761370
 In        19.5175872149       25.4795879156       10.8455091472
 In        19.5306208694       25.4571152139       16.6490335779
 In        19.5457637955       25.4514199541       22.5095743925
 In        19.5400555937       25.4519669253       28.3602752654
 In        19.4732784582       25.4735552059       33.9960217838
 In        19.5266529774       28.3769576846       13.7342061202
 In        19.5230165255       28.3654649769       19.5368957837
 In        19.5405616022       28.3600586357       25.4539975556
 In        19.5971036968       28.3800272442       31.2584584493
 In        19.5186817409       31.3201953365       16.6389486221
 In        19.4813787546       31.2461075151       22.4349086674
 In        19.6113094258       31.2436135389       28.4414593972
 In        19.5259963473       31.4141795791       34.1532670209
 In        19.4550135464       34.2095944483       19.5243697879
 In        19.5408233801       33.9904307644       25.3947112239
 In        19.5426539379       34.0640934727       31.4962438813
 In        22.5915570567       10.7869830817       16.5700292109
 In        22.5842037988       11.0103613382       22.5855809380
 In        22.5583172957       10.7833696576       28.5206438553
 In        22.5065961630       13.7316075481       13.7367042180
 In        22.5921997900       13.7498186413       19.5474945024
 In        22.5051149827       13.7469049830       25.5341922336
 In        22.5104712410       13.6827339741       31.3315460079
 In        22.5169126905       16.5571947638       10.8455141261
 In        22.5694398255       16.6374982260       16.6450463770
 In        22.5634807174       16.6380318927       22.5157544767
 In        22.4929575300       16.6404771647       28.3884409691
 In        22.4296060980       16.5577927984       34.2154219786
 In        22.5128410867       19.5292271140       13.7762039020
 In        22.5156728550       19.5506361127       19.6039494166
 In        22.5088438740       19.5678560259       25.4485284679
 In        22.4238479487       19.5240962827       31.2562330497
 In        22.4875677292       22.4801119631       11.0176666770
 In        22.4888041640       22.4959006626       16.7091776091
 In        22.5003706771       22.5016140340       22.5110872105
 In        22.4970425930       22.5123899220       28.3654125093
 In        22.4298195053       22.5102827719       33.9914432228
 In        22.4283123091       25.4634653579       13.8046021752
 In        22.4702488623       25.4421274479       19.6061639101
 In        22.4945797412       25.4566018218       25.4566256507
 In        22.5068978307       25.4671030185       31.2570473638
 In        22.4202828300       28.4452305376       10.8422562069
 In        22.4289763653       28.3641322613       16.6431209194
 In        22.4801557756       28.3625493563       22.5152522500
 In        22.5149549040       28.3711821450       28.3707088910
 In        22.5057504813       28.4335268575       34.2169919189
 In        22.4356944183       31.3247014236       13.7397316571
 In        22.4178401734       31.2532488543       19.5378218904
 In        22.5112831184       31.2512931880       25.4745237597
 In        22.4958280060       31.2757727520       31.3240995525
 In        22.4144470182       34.2133796329       16.5671429966
 In        22.4937151329       33.9922720165       22.4976221961
 In        22.5039984302       34.2142819751       28.4507228418
 In        25.5543020960       10.7898852345       19.5469199352
 In        25.5324923152       11.0103685489       25.5365153346
 In        25.5445458702       10.8543342729       31.4865707707
 In        25.4793812723       13.6738031505       16.6436687049
 In        25.5362974891       13.7471425539       22.4974466301
 In        25.4093631362       13.7510324702       28.4320246830
 In        25.4647927205       13.5255636100       34.1233705055
 In        25.4652360931       16.6239138328       13.7390788820
 In        25.4864833423       16.6251990454       19.5425892188
 In        25.4681433691       16.6465940739       25.4585682220
 In        25.3689424274       16.5735467761       31.2577225311
 In        25.4604275377       19.4518381442       10.8502051714
 In        25.4683875225       19.5315362834       16.6531186043
 In        25.4593357410       19.5489163665       22.5086323521
 In        25.4449064169       19.5881199237       28.3695484774
 In        25.3904731052       19.6090382486       33.9919950458
 In        25.4077950308       22.4232960010       13.8098268594
 In        25.4246802829       22.4872755290       19.6090439153
 In        25.4131054157       22.5080792571       25.4573013839
 In        25.4598594691       22.5712035488       31.2538555688
 In        25.3841400861       25.3830601813       11.0230875188
 In        25.3880684764       25.4128704489       16.7053369745
 In        25.4052465478       25.4424754161       22.5561277515
 In        25.4588941281       25.4741501094       28.3745755733
 In        25.4616261959       25.4823894710       34.2181858281
 In        25.3150985908       28.4234871009       13.7608934336
 In        25.3920104416       28.3568589106       19.6074037991
 In        25.4573295450       28.3836861380       25.4795450033
 In        25.4069583013       28.3652304669       31.3281044057
 In        25.4503565490       31.4784190102       10.9774556938
 In        25.3221618431       31.2566888301       16.6389742108
 In        25.4519418305       31.2541762573       22.5726547979
 In        25.4085962547       31.3222437956       28.4142737211
 In        25.4573263334       34.1423567876       13.5984207235
 In        25.4051903858       33.9918078583       19.5394810057
 In        25.4610023191       34.2130567702       25.5426564697
 In        28.5143763939       10.7860268680       22.5555164595
 In        28.5335464124       11.0977424924       28.5361164162
 In        28.4281439228       13.6747013336       19.6017757947
 In        28.4354296512       13.7556712444       25.4612714906
 In        28.2103276970       13.4321697943       31.1842682103
 In        28.4285853009       16.5738518921       16.6467022874
 In        28.4131047085       16.6317816570       22.4971198892
 In        28.4041487443       16.6357197856       28.3763690777
 In        28.2692707986       16.7910136700       34.0706257782
 In        28.3742327595       19.5323642072       13.7440300295
 In        28.3698583951       19.5300401871       19.5713369271
 In        28.3609691688       19.5873665891       25.4616276816
 In        28.4318899285       19.6793968109       31.2491607978
 In        28.3618407103       22.3445561564       10.8620681906
 In        28.3625014117       22.4291713060       16.6678434815
 In        28.3475501301       22.4981048269       22.5518760731
 In        28.3660599421       22.5702943737       28.3763144368
 In        28.4409355465       22.5793868107       34.2186577624
 In        28.2889602452       25.3156293261       13.8025413796
 In        28.3075794957       25.4053150799       19.6216255544
 In        28.3599493143       25.4763052469       25.4811427102
 In        28.3602972133       25.4729028161       31.3294936741
 In        28.2755902885       28.1340447023       10.8688884151
 In        28.2958409451       28.3731443583       16.6889795585
 In        28.3551270455       28.3699570879       22.5700827292
 In        28.3591158547       28.4262996077       28.4262775645
 In        28.1235363277       31.5720577476       13.9142349108
 In        28.3168849682       31.2623243584       19.6329340030
 In        28.3547981170       31.3286193114       25.4761214922
 In        28.4234433759       33.9769152703       16.5513950096
 In        28.3711642160       34.2158575085       22.5715067006
 In        31.4848731212       10.9227132874       25.6217545440
 In        31.3288502977       13.6813753554       22.5742356868
 In        31.3716882473       13.6649848799       28.5207027568
 In        31.3318806372       16.6146973846       19.6097738310
 In        31.2548705288       16.5802027208       25.4596569399
 In        31.6275081777       16.8535045920       31.1772076108
 In        31.3293806948       19.5261106237       16.6946630893
 In        31.2546994671       19.5224773758       22.5124504857
 In        31.2537989980       19.6263371233       28.4201947261
 In        31.4957122596       19.6106688528       34.0664371618
 In        31.2389865847       22.5756343708       13.8254359409
 In        31.2412009172       22.4241168572       19.6084332595
 In        31.2480841053       22.5645927662       25.4973377352
 In        31.3198724043       22.5589231006       31.3137047771
 In        31.6472800136       24.9218923735       10.9916857018
 In        31.2343193146       25.3101536108       16.7101660082
 In        31.2392137880       25.4764139000       22.5795805705
 In        31.2634810476       25.4843483123       28.4187931032
 In        31.3433033506       27.6561399795       13.5944031507
 In        31.1916463433       28.4290047668       19.6810758814
 In        31.2573221518       28.4251832417       25.4780552175
 In        31.0362815116       31.6280102716       16.8767952759
 In        31.2444517818       31.3309612215       22.5091487436
 In        31.3371752433       34.1545295399       19.5473653663
 In        34.1316348249       13.5216524680       25.6237630863
 In        34.2136953318       16.4912553921       22.5760456406
 In        33.9131418463       16.4919982153       28.5177629424
 In        34.2183013466       19.4411919487       19.6262096781
 In        33.9873894470       19.5303210096       25.5344452117
 In        34.1592987785       19.5515947041       31.4133248278
 In        34.2136392857       22.3416854955       16.7021267682
 In        33.9962412683       22.4902535044       22.5817625917
 In        34.1899148982       22.5762359437       28.4550492147
 In        34.1499296019       25.2152888365       13.5922916174
 In        33.9875087643       25.3949325194       19.6265600689
 In        34.1540870331       25.5439569143       25.5488537264
 In        34.0574859516       28.1966051014       16.7268605557
 In        34.1532250557       28.4594631895       22.5827770713
 In        33.9859382461       31.4913151114       19.5436179668
  P        12.0575997169       12.0090050015       18.0881456591
  P        12.2569716828       15.1667712329       21.1111145075
  P        12.1402782184       17.9099379935       12.0696826221
  P        12.4013893866       18.1359732749       18.2072527590
  P        12.2354899096       18.1020257957       24.0687314553
  P        12.2260157606       21.0059604038       15.2009163461
  P        12.3860649918       21.0480704399       21.1185792694
  P        12.2108383305       21.0773930632       26.9682749034
  P        12.2066280962       23.9364037861       18.1356929228
  P        12.3504689271       23.9843587587       24.0368204280
  P        12.2036833242       24.0631999856       29.8785329153
  P        12.1981943050       26.8613385202       21.0858922043
  P        12.3401873027       26.9503058580       26.9594760257
  P        12.0793519584       27.2021918962       32.9193256089
  P        12.1996781307       29.8186447073       24.0095894095
  P        12.1350494588       30.0825623692       30.0418756103
  P        11.9914657096       32.9038022191       27.0584882015
  P        15.2246311378       12.1920817941       21.0982313964
  P        15.0040469190       14.9939978290       12.2116463219
  P        15.2579756643       15.2364755279       18.2398635359
  P        15.1990445921       15.1548933578       24.0070396380
  P        15.1877137350       18.1168381709       15.2298901897
  P        15.2145632127       18.1316220231       21.1267912505
  P        15.1562069247       18.1324468131       26.9236164312
  P        15.1813311557       21.0022408885       12.2503619918
  P        15.2014938904       21.0586561530       18.1414953737
  P        15.1892537827       21.0494059402       24.0311421282
  P        15.1555655628       21.0879619000       29.8489993333
  P        15.1623705166       23.9746165654       15.1972305178
  P        15.2010774633       23.9758629415       21.0568164784
  P        15.1896859299       23.9895389297       26.9341162251
  P        15.1201145508       24.0545366965       32.7989496700
  P        15.1331926553       26.8902851795       18.1212099337
  P        15.1951510444       26.8957992283       23.9681279777
  P        15.1098578528       26.9636280929       29.8907559150
  P        15.1482223074       29.8098228464       21.0452000324
  P        15.1402742643       29.8409291315       26.9142324608
  P        14.9570857679       30.0827978853       32.8578546156
  P        15.1147871340       32.7636187450       23.9934506592
  P        17.9265950164       12.1147685425       12.0832338716
  P        18.1820802942       12.3954095901       18.2184193188
  P        18.1735697034       12.2021167631       24.0417292842
  P        18.1351260218       15.1662725130       15.2237070118
  P        18.1541987230       15.2019651254       21.1264462391
  P        18.1433099745       15.1412456349       26.9188540134
  P        18.0755817635       18.0750356287       12.3692279143
  P        18.1104441245       18.1006317899       18.1629049236
  P        18.1266493327       18.1099441601       24.0083212708
  P        18.1397633712       18.1553127364       29.8852933155
  P        18.1081348746       21.0373331642       15.2409779079
  P        18.1092140021       21.0322575300       21.0847957244
  P        18.1175470739       21.0461072864       26.9075117646
  P        18.0493897314       21.0673014477       32.7998564320
  P        18.1208634973       23.9463251011       12.2690854942
  P        18.1057013481       23.9696118665       18.1315750278
  P        18.1079759747       23.9742196880       23.9935428457
  P        18.0682458787       23.9865122491       29.8111611330
  P        18.0850569633       26.9007444761       15.1946306970
  P        18.0949930824       26.8956676799       21.0297000143
  P        18.0699990652       26.9284028275       26.9259491911
  P        18.0388572664       26.9478236036       32.6550219249
  P        18.0728349366       29.8293861659       18.0941799281
  P        18.0825700729       29.8106302212       23.9649972329
  P        18.0813257257       29.8399559513       29.8478643883
  P        18.0556329405       32.7663568428       21.0352864492
  P        18.1030595442       32.6116768536       26.8789485957
  P        17.9339211237       32.9208151797       32.9691128321
  P        21.0271784383       12.2115066083       15.1960583209
  P        21.1058100530       12.3798862438       21.1188987533
  P        21.1119018682       12.2154753833       26.9736214464
  P        20.9861931756       15.1686221634       12.2588396283
  P        21.0775328744       15.1990932142       18.1358562932
  P        21.0835236310       15.1958766620       24.0194227202
  P        21.0635705262       15.1716691554       29.8591965627
  P        21.0379890957       18.1021109705       15.2424700802
  P        21.0587346003       18.0910597233       21.0757605439
  P        21.0453643705       18.1145482431       26.9175580802
  P        21.0077790514       18.1050515931       32.7979188809
  P        21.0136878304       21.0114251340       12.3646403898
  P        21.0313745174       21.0305824469       18.1709111849
  P        21.0458048926       21.0349237817       23.9839665188
  P        21.0128015066       21.0583831084       29.8332132856
  P        21.0164049234       23.9489241854       15.2364395397
  P        21.0192145043       23.9662078601       21.0650494444
  P        21.0279871404       23.9815370015       26.9114176495
  P        20.9665736947       23.9834257285       32.6514151156
  P        21.0463284383       26.8812779372       12.2649626348
  P        21.0146917429       26.8825006052       18.1203140885
  P        21.0144140644       26.9028385482       23.9815199069
  P        21.0305450569       26.8989027123       29.8013597760
  P        21.0049773248       29.8360475297       15.1908335295
  P        20.9998903240       29.7971070375       21.0280939095
  P        21.0215233394       29.8107662819       26.9054864806
  P        20.9922069942       29.8223567521       32.7812421779
  P        21.0163182555       32.7934214770       18.1252656274
  P        21.0090628455       32.6294247858       23.9420541978
  P        21.0000239217       32.7754795550       29.8483398199
  P        23.9769655911       12.1963499599       18.1387103971
  P        24.0374694448       12.3617313685       24.0439739796
  P        24.0414173799       12.2291200684       29.9005510557
  P        23.9873687313       15.1590043363       15.1953720835
  P        24.0204915779       15.1810534780       21.0465404589
  P        23.9838189632       15.2086935304       26.9349271424
  P        23.9847499227       15.1642530855       32.8139360852
  P        23.9198291759       18.0895609065       12.2757323163
  P        23.9840078186       18.1030736434       18.1310652352
  P        23.9881699568       18.1059546630       23.9919957672
  P        23.9563610023       18.1187511864       29.8272679890
  P        23.9347092256       21.0007974417       15.2522875954
  P        23.9669502238       21.0190870559       21.0657509466
  P        23.9554735633       21.0363886474       26.9143609216
  P        23.9197340686       21.0570934257       32.6346119075
  P        23.9300635771       23.9418222818       12.4025103410
  P        23.9431380990       23.9564532552       18.1647674835
  P        23.9406073247       23.9661915821       23.9917179402
  P        23.9604644555       23.9903239116       29.8078133548
  P        23.9435350024       26.8872316150       15.2256381021
  P        23.9441846946       26.8884266483       21.0650478316
  P        23.9682622340       26.9068892646       26.9020325704
  P        23.9116065351       26.8718909231       32.7984414499
  P        23.9511725216       29.8545491130       12.2473288256
  P        23.9175588858       29.7902571830       18.1228255637
  P        23.9546633503       29.8047544754       23.9880179791
  P        23.9440651997       29.8263198636       29.8436667744
  P        23.9596516906       32.7867424089       15.1798671441
  P        23.9531828122       32.6325996607       21.0293565717
  P        23.9035792733       32.7861350680       26.9021605599
  P        26.9419679160       12.1948634505       21.1028146315
  P        26.9623380530       12.3618758858       26.9923971823
  P        27.1043432122       12.0928138475       32.9659621587
  P        26.9327138808       15.1327382055       18.1189938910
  P        26.9384191707       15.2005689434       23.9919940210
  P        26.9118062008       15.1920428955       29.8566100049
  P        26.9251495674       18.0796243365       15.2039751761
  P        26.9100214013       18.0862058239       21.0453043724
  P        26.9087876660       18.1153393597       26.9300930798
  P        26.8644088476       18.1586827044       32.6124085554
  P        26.8208422543       21.0001572708       12.2935107721
  P        26.8848522304       21.0154580993       18.1412028520
  P        26.8779577191       21.0346488669       23.9943943929
  P        26.8916990182       21.0767530989       29.8150050617
  P        26.8380672255       23.9072510098       15.2637099117
  P        26.8633227444       23.9547995997       21.0884559528
  P        26.8795319334       23.9849991825       26.8974791248
  P        26.8706243990       23.9571597678       32.7984416311
  P        26.8368804330       26.8662953012       12.3956051820
  P        26.8663158531       26.8794234859       18.1422055115
  P        26.8794349541       26.9016109248       23.9944467916
  P        26.8835805754       26.9166211991       29.8589981928
  P        26.8481457260       29.8052122264       15.2004772756
  P        26.8689333803       29.7943994364       21.0722178809
  P        26.8778719502       29.8701174192       26.9263680715
  P        27.0797901360       32.9292722976       12.1359497458
  P        26.8830451838       32.6609777590       18.0697982838
  P        26.8468783486       32.7937164110       23.9804346745
  P        29.8698916446       12.2260029823       24.0735467678
  P        30.0394597934       12.1864448016       30.0999638793
  P        29.8691426870       15.1521545104       21.0737307760
  P        29.8629011266       15.1514872038       26.9783101909
  P        29.8530768971       18.0825941721       18.1352064026
  P        29.8133169244       18.1004479626       24.0060179843
  P        29.8275815943       18.1243202830       29.8636081691
  P        29.8502574167       21.0062695296       15.2145262877
  P        29.7875375392       21.0085592584       21.0808097695
  P        29.8008033993       21.0684612879       26.9228452392
  P        29.8361215768       21.0609423237       32.7905621541
  P        29.7174181804       23.9190978329       12.2922697190
  P        29.7733849591       23.9114870034       18.1764470131
  P        29.7928772986       23.9855663980       23.9990631681
  P        29.8140849607       23.9932480293       29.8614809548
  P        29.7449343593       26.7849495897       15.2648293480
  P        29.7752994276       26.8837010934       21.0691971017
  P        29.8079797891       26.9375966890       26.9266770153
  P        29.7781962943       29.8177770405       18.1262142936
  P        29.8013874349       29.8630180324       23.9751823566
  P        29.9687063223       32.8387414771       14.9966609697
  P        29.7590278168       32.7897242810       21.0166965869
  P        32.9040405506       12.1210581599       27.2310463257
  P        32.7849403715       15.1252368148       24.0877873237
  P        32.8407884316       14.9967893214       30.0997907474
  P        32.7926039893       18.0703073650       21.1479991023
  P        32.6440411808       18.0686005887       26.9788256430
  P        32.9597323773       17.9852191670       32.9308356563
  P        32.7792323605       20.9957415697       18.2303991976
  P        32.6448981148       21.0217439955       24.0310532401
  P        32.7708181513       21.0449137479       29.8478124335
  P        32.7945859453       23.9302716154       15.3135670935
  P        32.6334062748       23.9483370404       21.0905886352
  P        32.7482264495       23.9880436305       26.9206833085
  P        32.9889833493       26.7859893244       12.0303787259
  P        32.5954726021       26.8764752522       18.1736108598
  P        32.7390286749       26.9192765326       23.9755214202
  P        32.7362898191       29.8472635408       21.0240854257
  P        32.8222231557       32.9603057696       17.9276201989
 Cl         9.6214845167       15.0868992459       17.9802393465
 Cl         8.9430971196       15.5833271782       23.4750370896
 Cl         9.6820818702       17.6785553113       15.1260530451
 Cl         9.5785013257       18.1327447809       20.9654005874
 Cl         8.9031658239       18.4785288527       26.3525767408
 Cl         8.9666135876       20.4034051268       12.8956492664
 Cl         9.5563462570       20.8426798314       18.2068272452
 Cl         9.5575841446       21.0724670747       23.8947315949
 Cl         8.9309261972       21.3780131607       29.2290495391
 Cl         8.8344638398       23.3713650787       15.7199515746
 Cl         9.5385634265       23.7871653194       21.1512543020
 Cl         9.5310014499       24.0166127782       26.7977913108
 Cl         8.8505062214       26.2529261737       18.6080027386
 Cl         9.5342986673       26.7316059214       24.0606124387
 Cl         9.5780634826       26.9630286889       29.6701585007
 Cl         8.8856224859       29.2015490910       21.4833576379
 Cl         9.5793124691       29.6452171350       26.9113436452