    1259
 i =      174, E =    -41942.3933169962
 Cl        20.5355903887       43.2014070392       20.5136489742
 Cl        25.9992397322       42.9954046707       25.9637525150
 Se        40.4528132851       17.3387453847       26.1750689120
 Cl        42.9891716315       20.3449882338       26.0754458136
 Zn        33.2913730036       21.6303402330       41.6823271377
  S        20.1355727562       34.7591350297       28.9091856537
 Se        23.0900161822       37.7749001193       28.8912552459
 Se        25.9596813189       40.4768209969       28.8842137878
 Cl        28.7859404496       42.9764383373       28.7819146175
  S        20.1836639654       31.8079452659       20.1317614828
 Se        34.4147524459       40.6151771078       31.6961620162
 Se        11.5644248027       25.7743559689       17.3452362416
  S        23.0826825378       31.8234938051       23.0807710636
 Zn        36.2919110239       21.5473621132       15.8078610843
  S        23.0933284784       34.7184314091       20.1310453059
 Zn        33.3582706707       41.6657275057       21.5521691510
  S        25.9943920183       17.2737774489       28.9162932323
 Zn        10.5677909294       29.8579053283       16.3973966625
 Se        31.9607555735       14.3405256162       20.0436051243
 Zn        16.2266092563       35.7735974097       15.9724415337
 Se        34.8861546911       17.2030493192       20.0803049794
 Zn        22.1413123827       41.3614492072       16.3916017945
 Se        40.9264316059       30.3984372154       16.3105474409
  S        23.0824523338       25.9709829575       17.2901182744
 Cl         9.0146775560       28.7774153354       23.1970435617
 Se        11.5845857255       31.7521867488       23.0685259089
 Se        25.9842352820       37.7529696118       20.1538269516
 Se        17.3501541386       14.3855866113       34.9444052650
 Se        20.0763391518       17.1955784435       34.8847509771
  S        23.0721016132       20.1928721061       34.7228835483
  S        25.9976951720       23.0911374518       34.7223575661
  S        28.9131293682       26.0026558577       34.7290977812
  S        31.8170520788       28.9233939593       34.7454818478
 Se        34.7844936962       31.9636959254       34.7939079127
 Se        28.9139877274       28.9260504334       37.7804275368
 Zn        41.5884448809       28.2024304007       16.8890137693
 Zn        10.3921097714       27.1204920123       18.9794834158
 Zn        12.9679642819       30.3808754870       18.7081966824
 Zn        15.7989989225       33.3624502172       18.5427134195
 Zn        18.6371834878       36.2005844792       18.5449594345
 Zn        21.6172123307       39.0222618216       18.7036892399
 Zn        24.8797316840       41.6056916386       18.9809848456
 Zn        26.8771167421        9.9908090644       15.6387363880
  S        17.2632065608       20.1431941592       28.8967045749
 Se        37.6096966442       34.9356056763       34.6504093695
 Cl        25.9279544772       42.9835447101       31.6536563213
 Se        11.3138439053       23.4334229222       37.4152439880
 Se        14.4681206697       26.0732980943       37.5664297429
 Se        17.4238643310       28.8360348159       37.4101426089
 Se        20.1451751435       31.8508708564       37.5200993131
 Zn        41.4387497883       16.3127278376       22.1468802411
 Cl        23.3020572736       17.5754234016       42.9989819885
 Cl        26.0324716032       20.3529207066       42.9698077858
 Se        31.9275817186       31.9555619495       37.6634324999
 Cd        24.5417559984       33.2727709230       21.6159031520
 Zn        10.2470119195       24.3866550407       21.6394807658
 Zn        12.8957196414       27.3770156162       21.7037256340
 Cd        15.8155999492       30.3802665154       21.5506075517
 Cd        18.7194286111       33.2790978891       21.5536305223
 Cd        21.6196602701       36.1824030250       21.5522647439
 Zn        24.6175277843       39.0963227733       21.6431423253
 Zn        27.6208228536       41.6846291630       21.6346326408
 Se        20.0649589476       37.6597052793       20.0250225384
  S        20.1714943163       23.0809314610       28.9127526798
 Zn        36.2123053834       13.1460331883       24.5449464542
 Cl        28.9555791814       23.0215470642       42.9809474461
 Cl        31.5986082481       25.9581787190       42.9566973357
 Cl        34.6035604330       28.3567283707       42.9846889603
 Zn        10.3242137555       33.2952700464       30.3698765228
 Zn        35.3583238233       23.7904975765       41.9281660029
 Zn        33.6206006240       15.6306844984       13.7165650097
 Zn        13.3923796306       16.0593498304       21.5474734211
 Se        20.1400114425       14.3839666694       37.7263489065
 Zn        13.3915044533       35.9319116260       30.4445658201
 Zn        10.2463212458       21.6310121923       24.4490421485
 Zn        12.9002190763       24.5420843023       24.5396156974
 Cd        15.8182413445       27.4537002267       24.5431645301
 Cd        18.7231452744       30.3749909904       24.5366727498
 Cd        21.6208936567       33.2755470963       24.5377288965
 Cd        24.5417473361       36.1842752171       24.5398507423
 Zn        27.4563092815       39.0903286585       24.5418024611
 Zn        30.3715093120       41.6837803594       24.4477237762
 Se        23.1409693240       40.4197798739       20.1914731689
 Se        22.9893346714       17.2395278998       37.7295504269
 Se        25.9720258465       20.2057384219       37.7580500667
 Se        28.8967457257       23.1009584927       37.7778635016
 Se        31.8093144937       26.0213073769       37.7840041458
 Se        34.7861535710       29.0371189975       37.6866121387
 Se        37.6252834328       31.7409350289       37.6925271419
 Se        26.0466844210       14.2187854660       20.1783400200
 Zn        29.8700274716       16.3186350422       10.6432453882
 Se        23.1514891224       34.6058432574       37.3674820196
 Zn        16.0638435652       38.6059789398       30.4436364434
 Zn        10.3991182329       18.9789868630       27.1963085480
 Zn        12.9034068862       21.7016792146       27.3917325323
 Cd        15.8170960897       24.5412971796       27.4566281060
 Cd        18.7235606553       27.4555936713       27.4550171969
 Cd        21.6229865676       30.3745088332       27.4527818878
 Cd        24.5306359157       33.2642719910       27.4524334476
 Cd        27.4468376962       36.1260643566       27.4491733709
 Zn        30.2914656988       39.0325444969       27.3751592310
 Zn        33.1104141479       41.7559419905       27.2042832721
 Zn        39.6768937479       21.2118312383       14.0618362876
 Se        25.8946266629       37.5577588303       37.5463472052
 Se        28.6285147445       40.6034176035       37.5092175680
 Se        23.1582710960       17.3857001930       14.6115613151
 Cl         8.8498166792       20.4236147700       31.4796912021
 Se        34.6168952883       34.9583170316       37.6116615133
 Zn        18.6420975450       41.6754726570       30.3702522542
 Se        23.1765294500       37.3806340756       34.5411179996
 Se        25.8335298563       40.4300262469       34.6444755939
 Se        23.1380014025       20.2291220872       40.4187598345
 Zn        10.7143840273       16.3132358144       29.8715787044
 Zn        12.9838592921       18.7185210994       30.3775822875
 Cd        15.8110767973       21.5665172799       30.3833446626
 Cd        18.7209960142       24.5402726174       30.3776008190
 Cd        21.6265986587       27.4559162963       30.3694242476
 Cd        24.5378020438       30.3734997086       30.3679927402
 Cd        27.4493199125       33.2622738295       30.3763199381
 Cd        30.3791025498       36.1459691389       30.3754396164
 Zn        33.2117234745       39.0353859348       30.3773493435
 Zn        35.5998374299       41.4332525666       29.8623958874
 Cl        26.1040182897       42.9251180614       20.3636605185
 Se        22.9969071220       40.3969290490       31.8021487909
  S        23.0830197718       25.9997670474       28.9114851302
 Se        11.5935525328       23.0988986077       31.7813967133
 Se        14.2314741841       25.9549515706       31.8306420365
  S        17.2295355875       28.9439413445       31.8254480709
  S        20.1571882846       31.8033894747       31.8242536795
  S        23.0158066795       34.7224896650       31.8259625752
 Zn        15.9010334121       18.8969196394       21.6278797771
 Cd        18.7152022715       21.6221556864       21.6266887617
 Zn        13.6415162284       15.6436299353       33.5488553345
 Zn        15.7995394111       18.6348035341       33.4444102456
 Cd        18.7046673939       21.6117783513       33.3054556889
 Cd        21.6265046794       24.5449298857       33.2657198572
 Cd        24.5493334538       27.4604464246       33.2695361438
 Cd        27.4603112417       30.3845359109       33.2762938426
 Cd        30.4384664569       33.3500909872       33.2937188907
 Zn        33.3554627000       36.2809741049       33.2832848132
 Zn        35.9562721283       39.1154114554       32.7864443774
 Se        23.0909211293       14.2333170028       28.9421164474
 Se        23.3520829404       14.4922902546       40.6316250292
 Se        26.1229495259       17.3636956075       40.4430433025
 Se        28.9802952338       20.2033593223       40.3923895846
 Se        31.7608447144       23.0269701266       40.3827448976
 Se        34.6051377384       25.8050429398       40.4657504388
 Se        37.3881944833       28.5138451779       40.7271349561
  S        20.1731477092       28.9110131815       23.0811098818
 Zn        15.7154686356       27.3823331137       13.0536890978
 Se        37.7678123607       20.2120494050       25.9916387583
 Cd        21.6305343254       24.5370551722       21.6265778392
 Zn        16.2116155768       16.2174036116       35.9399291258
 Zn        18.7103465369       18.7143523336       36.2729761864
 Cd        21.6220468745       21.6304289959       36.1933066725
 Cd        24.5480471843       24.5468202567       36.1815475280
 Cd        27.4560391270       27.4582253101       36.1818745583
 Cd        30.3802899212       30.4334269308       36.1863675948
 Zn        33.3644260849       33.4461921102       36.2064602967
 Zn        35.7800618840       35.9495204084       35.7842530802
 Zn        18.7195447917       30.3731852115       12.8906933339
 Cl        28.6702330500       42.9462973528       34.4243359842
 Se        14.3179474641       34.7978815949       22.9154973716
 Zn        19.3899649187       10.3096586139       32.6164077179
 Zn        33.2864400092       21.5483778055       12.9713404070
  S        25.9930498481       28.9120960835       28.9136709593
 Se        25.9844465378       37.7281468293       31.7728838309
 Se        28.8171493321       40.4091653784       31.7569908607
 Cl        38.2837041606       35.0102195747       38.3587655027
 Se        26.0332049913       20.1684257123       14.2249658796
 Se        28.9251218854       23.0447967100       14.2365004989
 Cd        24.5441857322       27.4534732568       21.6340437644
 Zn        19.2216776275       16.1585529512       38.9352342976
 Zn        21.5484658374       18.7188306445       39.1110744280
 Zn        24.6213434371       21.7016194279       39.0984172380
 Zn        27.4541291960       24.5406191449       39.0973127640
 Zn        30.2852582736       27.3927169848       39.0979042625
 Zn        33.2153796266       30.3804142308       39.0200371677
 Zn        36.3615037356       33.6190134526       38.3535126026
 Zn        21.6222425483       33.1975452771       12.8952919282
 Se        31.8073970691       25.9589023554       14.2107378735
 Zn        10.3236344829       21.6232894387       18.6305380469
  S        28.9146099164       20.1724502123       28.9148930106
 Zn        10.0797589881       16.5633312661       23.7861613127
 Zn        13.0597288126       18.8067530926       24.3773817331
 Zn        24.5476956127       36.2791144832       13.0504539780
 Cd        15.8191870479       21.6299602154       24.5392369229
 Cd        27.4555384761       30.3683785571       21.6281059096
  S        31.8258265920       23.0851327417       28.9187421911
 Se        14.6353025754       14.6238404342       20.0512384424
 Se        17.4450589388       17.4334061791       20.2998975942
 Cd        30.3765619760       33.2781005059       21.6238878456
 Zn        22.1387850985       16.3098365072       41.4358165224
 Zn        24.7243728008       18.8875815650       41.7665637967
 Zn        27.5408271431       21.6313941412       41.7610369713
 Zn        30.2939876650       24.4490374593       41.7560253796
  S        31.8606505318       17.2844635843       23.0744617831
  S        34.7422682077       20.1888516906       23.1025823404
 Se        37.8003091194       23.1036420454       23.1032879006
 Se        40.4981319611       26.0515854107       23.1234383165
 Cl        42.9768136839       28.9578642391       23.0264246510
 Zn        32.9486743213       27.1935452014       41.6071910794
 Zn        35.6063808349       29.8632595075       41.3564320855
 Se        37.3916359186       23.1377202644       34.6023742662
  S        20.1571498807       20.1441348325       20.1789244358
  S        23.0751832304       23.0609422971       20.1691569649
 Zn        35.6021952869       10.5636828535       22.1315986620
 Cl        19.8083839022       13.3236654901       41.3032085148
 Cl        28.8308857724       18.0767510184       43.4033533845
 Cl        32.3604861179       19.6022625208       42.2896361200
 Cl        33.7851571431       23.0827673975       43.4516390435
 Cl        36.9402306393       25.0430919523       43.1097234992
 Se        11.5963767764       20.2162995138       28.8921951913
 Cl         9.7343595625       32.3654222185       32.3873014094
 Se        31.7284598600       28.8999234430       40.4187556998
 Se        23.1380781158       11.5890438385       31.7930586197
 Se        40.4137470424       28.8731431225       31.7781281516
 Cl        43.2137569746       31.4212967797       31.5512719338
 Se        20.1834302831       37.7824834990       25.9451619980
 Se        34.7217830541       37.8380075691       34.6452247921
 Se        25.9778761858       23.1031100666       11.4924847883
 Cl        32.3772262610        9.7471542752       32.3756599766
 Se        34.7851969417       34.8270913082       31.9030013029
 Se        14.6444320478       37.3535536516       31.9359264420
 Zn        13.0659489262       24.3762144964       18.8027052175
 Cd        15.8160277000       27.4676811363       18.6415152488
 Cd        18.7117687106       30.3834002775       18.6441970900
 Se        23.1384254141       40.4603342273       25.9908652902
 Cl         8.5840090483       23.0846724521       18.1156858123
 Zn        36.4332361041       10.0604416067       25.1300048765
 Zn        30.4588233159       38.8576700162       21.5510335017
 Se        37.5643410537       37.5838407680       31.8661532658
 Cl        19.5776490818       42.2890740743       32.3944220118
 Cl        43.0084454938       26.0059475685       26.0356543370
 Zn        21.5530719239       12.9707682802       33.2872729732
 Zn        21.6311744239       18.6315100376       10.3237850574
 Zn        24.4539230364       21.6337727598       10.2457157743
 Zn        27.4461190966       24.5512795479       10.1614596052
 Zn        30.3602220276       27.5354656168       10.3090150691
 Zn        33.3732544106       30.2973879793       10.3175910058
 Se        40.4580267088       25.7829690576       34.6419278003
 Zn        33.2932745698       12.9647367712       21.5518515872
 Cd        18.7253388389       24.5422565356       24.5412540399
 Se        26.0425534874       23.1194136251       40.4943013112
  S        34.7282133117       26.0033010324       28.9182778755
  S        25.9995256420       25.9898131935       20.1846199529
  S        28.9126511559       28.9073168636       20.1756564786
  S        31.8239573863       31.8076211629       20.1751993764
 Se        34.5396950497       34.5217020282       20.2959785575
 Se        37.3517303521       37.3226960068       20.0252900546
 Se        11.5613219102       26.1940866154       34.6479953663
 Zn        33.1064040677       36.0877633473       21.6343552199
 Cd        21.6308146825       27.4555573079       24.5408500766
 Cd        24.4779242134       15.8153007553       33.3507397213
 Zn        21.5504898865       16.0606549784       13.3964938225
 Zn        24.3784899046       18.8030244967       13.0605692102
 Zn        27.3884767720       21.7037840657       12.8979974982
 Zn        30.2936368647       24.5465305848       12.8976851201
 Zn        33.1991894049       27.6178958448       13.0719069367
 Zn        35.9352495556       30.4465990506       13.4014253186
 Se        14.6216688629       28.8415885653       34.6079812793
 Zn        36.3665673648       15.7950749090       21.5374823218
 Se        11.3999181508       20.2008479100       34.5972344476
 Se        14.3316767264       22.9089262145       34.8341441800
  S        17.2705965072       25.9987393182       34.7227590350
 Se        25.9612919485       14.2413909699       31.8350059697
 Cd        24.5390958604       30.3654491021       24.5396703530
  S        20.1547609927       28.9514527754       34.7447939958
  S        23.0507501549       31.8259613832       34.7618175292
  S        25.9898996089       34.7229467263       34.7187124464
 Cd        27.4484656522       33.2617190209       24.5364427255
 Se        34.5419180877       31.7739229825       40.6056260077
 Cd        27.5098759189       18.7059045395       33.2938137054
 Zn        21.5531387191       13.3929653390       16.0624072338
 Zn        24.7069579891       15.8935667299       15.8966988496
 Cd        27.5229219046       18.7036815962       15.8157954560
 Cd        30.4410415582       21.5671472770       15.8162953829
 Cd        33.2932110544       24.5240946230       15.8176467211
 Zn        36.1133903379       27.2944203015       15.9570225540
 Zn        38.5847572097       30.4528880893       16.0703747365
 Se        17.4268804795       31.6891306014       34.5577955854
 Se        14.4624822527       31.8415709549       31.8342907651
 Cd        30.3601369866       36.1122995951       24.5286085807
 Zn        33.2046396883       38.9431078080       24.4639632910
 Zn        35.1114139916       41.5109994790       23.7969568758
 Se        28.9621365617       37.7179106437       34.7648689355
 Zn        32.6855398067       19.3127660693       10.3150623763
 Cl         9.0019477903       25.9710290534       26.0045067905
 Zn        15.6454946568        9.9883116651       26.8788061153
 Cl         8.9984890572       25.0281113120       14.9438644103
 Se        11.3036663386       28.5683992852       14.5979562862
  S        28.9342565933       31.8599822150       34.7097895452
 Zn        21.6277540908       10.3239756603       18.6347612445
 Zn        24.3823101987       13.0620546447       18.8063472985
 Cd        27.5315542752       15.8071825108       18.7053766738
 Cd        30.4448980306       18.7147581094       18.7225110641
 Cd        33.3404936091       21.6205532582       18.7181326374
 Cd        36.1970595638       24.5328442016       18.7033887772
 Zn        39.0152007233       27.5354738772       18.7937222689
 Zn        41.6801064583       30.4473773411       18.6413950931
 Cd        30.3710907119       21.6291208034       33.2871377147
 Se        14.4341892779       31.8631148437       14.2603535451
 Se        17.3809542867       34.6885458703       14.1107970742
 Zn        35.6051135746       22.1307388273       10.6387004500
 Zn        36.4384912308       25.1264817602       10.1389048100
 Zn        36.3530864454       26.8764591429       42.0128097540
 Cl        28.8105763274        9.0177572379       23.1593599368
 Se        31.7509966086       40.6287722984       34.5366951789
 Zn        30.3841919316       18.7176107888       12.9717873543
 Se        37.7725937181       28.9060788596       28.9435946156
 Se        11.2785655542       14.5437543023       28.4903819947
 Zn         9.9905016041       36.3519030850       25.1229493916
 Zn        24.4545297244       10.2560342659       21.6341544211
 Zn        27.4503533304       12.9020090376       21.7005884846
 Cd        30.4440039092       15.8142766422       21.6138063428
 Cd        33.3567567724       18.7120895989       21.6024606862
 Cd        36.1966791592       21.6253425819       21.6284079451
 Zn        39.1007618394       24.6263269099       21.7067268871
 Zn        41.7594873333       27.5495496987       21.6316710353
  S        28.9437325554       17.2392195637       31.8342666637
 Zn        15.6477755610       42.0092626495       25.1210461390
 Se        28.9410029991       14.2291169372       23.0838699586
 Cd        21.6213379021       33.2776453707       18.6541219025
 Zn        35.9272299585       38.5227549247       21.5454852971
 Se        14.5410313596       23.3466321362       40.6494815380
 Se        17.3499457596       26.1739317712       40.4572032650
 Se        20.2003072950       29.0100734355       40.3832924343
 Se        22.9954998455       31.7889910579       40.3390673406
 Cd        24.5297908153       36.1769011665       18.6384735114
 Zn        27.6305736046       38.9283917109       18.8018094607
 Se        14.3116191880       17.1636047049       29.0246403717
 Se        21.6206378426       11.0493343239       16.3081114276
 Zn        27.3851871258       10.2273563361       24.5591983137
 Zn        30.3003766918       12.8954373568       24.6140332246
 Cd        33.3549668079       15.8079777025       24.4753257866
 Cd        36.1960880780       18.7016094284       24.5346852196
 Zn        39.1000581344       21.7045762556       24.6246927072
 Zn        41.7751586885       24.6339617339       24.6352353907
 Zn        32.6876194496       10.3109460692       19.3136075600
 Se        31.7845969080       37.7118145462       26.0065940822
 Zn        30.3791737378       41.6686982612       18.5760231850
 Zn        10.0690835209       25.1279129261       36.4323900162
 Zn        21.6277785534       33.3714948593       41.6066022848
 Se        25.7779583312       34.6579020386       40.4291345388
 Se        28.5610199469       37.4136410213       40.6853707574
  S        28.9301763881       31.7920539053       17.2398894306
 Cd        33.2937270129       24.4825617838       33.2963430493
 Se        20.1081684186       20.1272847246       37.7063329343
 Se        14.4875802203       28.6033123157       11.3901795684
 Se        17.4655479936       31.6931758834       11.3268008473
 Se        20.2929503951       34.5289950400       34.5291578342
 Zn        36.2052802176       24.5425576742       13.2177851323
 Zn        30.3602789533       10.2489471843       27.5473813759
 Zn        33.1937312596       13.0655140302       27.6207097995
 Zn        36.1091950951       15.8962061764       27.2922449615
 Zn        39.0126688648       18.7926537860       27.5372805024
 Zn        41.7588951876       21.6293929762       27.5509619596
 Cl        25.9672134580        9.0518611801       20.3485326278
 Se        34.6524397782       40.4072859662       25.8435288669
 Se        20.3185998981       34.3990922829       11.3182443681
 Se        23.2934136489       37.4658818181       11.3229640593
 Se        11.5299371597       28.8721429860       26.0149217667
  S        17.2701136196       28.9136146040       25.9921195613
 Se        14.4351461434       20.1300124332       37.7347777995
 Se        17.2444288187       23.0201933562       37.7138300820
 Se        20.2181126219       25.9968011908       37.7555922643
 Se        23.1025881641       28.8893590782       37.7529182432
 Se        26.0402557715       31.8333890922       37.7601796290
 Cl         9.0494594614       20.3377892064       25.9642053465
 Se        11.5189532387       23.0936045269       25.9529158423
 Se        31.7801900997       11.5897557989       23.1002498677
 Se        14.3887002149       17.3670961435       34.9301466646
 Zn        33.3644754708       10.3242943217       30.3710886441
 Zn        35.9311512035       13.4001995542       30.4538406929
 Zn        38.5285197223       16.0778295269       30.4522464717
 Zn        41.6750829257       18.6381797598       30.4490635549
 Zn        38.9324932722       16.2299936762       19.2123729002
 Cl        37.8032895440       40.8657920150       32.6887546648
 Se        29.0730144937       34.8408595387       37.6613473524
 Se        31.8590197521       37.7281635644       37.5886848621
 Se        28.8858030843       25.9898508666       11.5151569273
 Se        31.8022670372       28.9744122070       11.6358668396
 Zn        23.7871609030       35.4394804945       41.8471606335
 Se        20.1591479505       37.5365097988       14.3492972464
 Cd        36.1878472320       27.4639490008       33.3571269885
 Se        11.0606276243       21.5953038579       16.3074258996
 Se        14.4555487316       25.8859299211       14.4513729615
 Se        17.2340618026       28.9519437633       14.2784742232
 Se        20.1172709556       31.8445701971       14.2933531524
 Se        23.0351004222       34.7223066611       14.2619123550
 Cl        19.6004110570       32.4373285755       42.2433526990
 Cl        15.0073649623        8.9038438117       25.0523689323
 Zn        15.8012226227       13.1359989664       27.3846076413
 Cd        18.7105067270       15.8125605449       27.4708952274
 Cd        21.6257868658       18.7233115127       27.4569043565
 Se        28.9157119764       11.5895347984       20.2058291561
 Cl        23.0744379119       33.8717278027       43.3808429919
 Se        26.0810355196       37.5190082468       14.4234683764
 Se        30.3984079362       40.9343692244       16.2645800795
 Se        11.4474970458       17.3727595659       31.8013040428
 Se        23.4583526052       40.6951602402       14.5953284356
 Zn        39.0244546822       30.3736235368       33.2853261379
 Zn        26.8691983829       36.4327578719       41.9337003508
 Cl         8.9947774557       28.2811796453       17.3386925554
 Se        17.4059302084       14.6010852993       23.1392678106
  S        20.1692053402       17.2298794950       23.0573325481
 Cl         8.5547826794       33.7985261387       28.9232654725
 Se        34.6147001362       28.8372107416       14.6228719455
 Cl         8.8888524725       15.0135881058       25.0575450617
  S        20.1473173237       31.8458184084       26.0104564932
 Se        17.5101913699       20.2429356550       40.6634845003
 Cl        25.0256055337       37.0609185127       42.9925189371
 Zn        38.9405831820       15.6468774753       24.5468099744
 Zn        41.7664617692       18.8804555370       24.7939078570
  S        26.0021469711       25.9999250789       31.8166576480
 Zn        41.6886056917       32.6143562473       32.6863431396
 Se        11.3452807083       31.7504644942       17.4582678230
 Se        14.6206565060       23.1364580885       17.3997537753
  S        17.2808005774       25.9586770142       17.2558438743
  S        20.1946548101       28.8885531117       17.2599651044
  S        23.1053561572       31.7977289498       17.2517880294
  S        26.0356709996       34.7130201996       17.2483389932
 Se        28.8578425447       37.3695020576       17.3874156952
 Cl         8.5605387873       18.1402869932       23.0782605737
 Se        31.6887465979       17.4421733843       34.5700015788
 Se        20.2289528772       23.1783581557       40.4307603606
 Se        23.1174916486       26.0510388352       40.4963792358
 Se        25.9393288011       28.8955057728       40.4938778955
 Se        37.3565576358       31.9566956838       14.6317582572
 Zn         9.9895388088       15.6374046742       26.8796782675
 Zn        13.1434756762       15.7252144499       27.3825639695
 Cd        15.8134018669       18.6471079627       27.4643456150
 Cd        18.7248703142       21.6216266149       27.4536680311
 Cd        21.6307291906       24.5414215146       27.4570507283
 Se        28.8487650217       31.7889447412       40.4170902697
 Se        31.7645498197       34.5403094023       40.6366084178
 Se        25.9259322120       14.4218675629       14.4243347755
 Se        34.8306091322       14.3188677222       22.9050960112
 Cl         8.5852457987       28.8978299808       33.8815466205
 Se        29.0440142813       17.1805291324       14.3153402943
  S        20.1689236423       28.9141265196       28.9104052390
 Se        11.0491931881       16.3050343418       21.6180906372
 Se        14.4656424815       20.1511123663       20.1614946990
  S        17.2359154761       23.0462640888       20.1734404377
  S        20.1589774364       25.9700690825       20.1631225188
  S        23.0893415851       28.9065364033       20.1804584593
  S        26.0228084765       31.8349729961       20.1578497874
  S        23.0639175018       31.8294122781       28.9191488404
 Cl        25.0376931511       14.9764417222        8.9113595573
 Cl        28.3539344748       17.3212190747        9.0170575105
 Cl        31.4739888195       20.4499915661        8.8022847157
 Cl        34.6829954384       23.6764804736        9.0293812262
 Cl        37.1303845596       26.9438543990        9.0629424303