     691
 i =       68, E =    -24028.1361291058
 Zn        18.5127517228       24.5858121462       18.4361778875
 Zn        21.6363257153       27.4998464000       18.5142363938
 Zn        24.6921542180       30.3808116818       18.3586130503
 Zn        27.5642650437       33.5857043841       18.2650817446
 Cl        25.5737559857        4.8891569268       17.5107553533
 Zn        33.9164533898       20.9737425648       27.7352031992
 Zn         7.3280277076       11.8531719060       19.3567379997
 Zn         9.3851779138       15.7152388490       18.3650691394
 Zn        12.5054067870       18.5276714342       18.5295542901
 Zn        15.4776583116       21.5602767057       18.4415071628
 Zn        21.5700730750       24.5207643697       21.5627592551
 Zn        24.6086005836       27.5730293477       21.6332005222
 Zn        27.5819859457       30.7036810833       21.5694293061
 Zn        29.1335091741       33.6561882417       20.6604892000
 Zn        22.1434180161       27.0714276911        6.3424615721
 Zn        15.2477094539       12.4282073525       15.5478273408
 Cl        35.0122921536       17.4440968364       14.3556079841
 Zn         9.3821264946       12.5041150062       21.4919351804
 Zn        12.4206006749       15.3937097296       21.5625308390
 Zn        15.4075806798       18.5084373992       21.5768959447
 Zn        18.5103365674       21.4835819297       21.4908950616
 Zn        24.6132353425       24.5337590886       24.6117105323
 Zn        27.6615463126       27.7323972428       24.7706665165
 Cl        17.2123892530       34.8528910396       20.1913387879
 Zn        18.4387720989       15.3970184862       15.3905758332
 Zn        12.5223241783       18.4336065990       12.3536194218
 Cl        20.0604784057       16.9050476578       34.7624078697
 Zn        12.4227958077       12.2675017845       24.6935548203
 Zn        15.3924560707       15.3963952911       24.6782651434
 Zn        18.4425840617       18.5078572701       24.5933497870
 Zn        21.5686329342       21.4853338865       24.6048941794
 Zn        27.7351789336       24.6071471950       27.6573674181
 Zn        29.6281395656       28.1569308030       28.2316785536
 Zn        11.8626018996       32.6709054458       20.6572891032
 Zn        33.4171039130       24.0981874938       26.7408070573
 Zn        21.4831796765       12.5052850964       21.4093904618
 Zn        12.5937645283        9.7092198328       27.7504397913
 Zn        15.4019846515       12.3475018989       27.7385000613
 Zn        18.5212055151       15.4640376682       27.5787381394
 Zn        21.5643160572       18.4362478271       27.5698154746
 Zn        24.6853935649       21.4808110315       27.6479825323
 Cl        19.0622853632       11.5773730523        5.1172487634
 Zn        27.7441900762       12.4193641424       15.2324990133
 Zn        24.5385956954       15.4732094834       21.4794164790
 Zn        30.5332326237       18.2014771613       24.4506502559
 Zn        24.5347989266       18.4415006312       18.4415067770
 Zn        21.0712661237        6.5826637694       15.7159987718
 Zn        24.6157978483        9.3002132426       15.4700521687
 Cl        34.8944292986       14.4973948897       17.1511953748
 Zn        18.5170389611       12.4140405742       30.7080028924
 Zn        21.6546352833       15.3160368376       30.4550643689
 Zn        24.5203113903       18.2574733204       30.5282741307
 Zn        27.8913965914       21.4055091924       30.5415156906
 Zn        21.5753799031       21.5663292632        6.4410229994
 Zn        33.5897038623       26.9819736924       23.2940617139
 Zn        21.8752056129       12.5075694364       33.5889759152
 Zn        24.8545447654       15.3989206059       33.5711837757
 Zn        26.9915554754       17.6128506075       33.6735107709
 Zn        27.9000223086       20.9019740878       33.8337957843
 Zn        21.4934096817        9.4482080276       12.2731558361
 Zn        21.4899200543       18.5210244975        9.4607890090
 Zn        12.5039913526        9.2879381915       21.5655201820
 Zn        27.3330792348       21.8958528377        6.3395351176
 Zn        30.6925603638       27.4081174048       15.6381906201
 Zn        15.3173049858       18.3567811307        9.5505338136
 Cl        13.9409412648       17.7021023942       34.7604300570
 Zn        24.6148019320       12.3423138974       12.3424848220
 Zn        18.5215747856       21.4850059100        9.4628892635
 Zn        12.1181380150       12.6645257404       12.5962492228
 Cl        14.4053050665       22.7837307808        5.1901901188
 Zn        21.4960004853       15.4682363876       18.4345025795
 Zn        24.5334733916       15.4698283994        9.3742707717
 Zn        24.5215866400       15.3083329969       27.6359877385
 Zn        30.6183985602       21.6481542955       15.7089615023
 Cl        34.9722984006       19.0877394939       28.3410874977
 Zn        15.5552168866        9.3673016114       24.6110473576
 Zn        30.7134660355       12.4304691601       18.4280202767
 Zn        33.5824665568       15.6376670110       18.7601590687
 Zn        18.5119015211       18.4534411264       18.5091483827
 Zn        15.4752656201        6.5024164675       15.1455160371
 Zn        13.3363477039        6.5802494021       24.0156162256
 Zn        15.3141738553       15.5529507565       12.4231910351
 Zn        17.6900380296       13.0900381673        6.3315653371
 Zn         9.3768441289       12.5917594213       15.6363802193
 Zn        15.4709570581       15.4714833463       18.5254620111
 Zn        27.4165984733       21.6429572561       12.3504155241
 Cl        34.8944187105       22.3360981722       25.8756910703
 Zn        27.4923692972       27.6441981689       18.4482184570
 Zn        30.6952720607       15.6305951272       15.4665287342
 Zn        27.5692438735       18.4343234837       21.5607418122
 Zn        18.5915469141       12.2771901917       12.3434917238
 Zn        27.5756069643       18.5975307263        9.2856172247
 Zn        15.7099687682       21.3084297340        6.4929353001
 Cl        10.7379529139        9.5669582321       29.3497646130
 Zn        12.6032202891       27.4814166936        9.4549145051
 Cl        35.4225128597       12.1883814312       20.1458985085
 Zn        19.0221764724       33.8442852432       12.2700820821
 Zn        12.4250265126       15.5443624726       15.5454683316
 Zn        21.3963889701       27.7322085082       12.3419048466
 Zn        24.8604237303       30.2987499984       12.5128895251
 Zn        21.5560258420       21.5549204312       18.4482113247
 Cl         5.8293222000       26.5047085128       23.8107240882
 Zn        12.3477392641       24.6843702544       12.1877968424
 Zn        15.3901231914       27.7288828418       12.4208465781
 Zn        18.5139646784       30.6124238772       12.3424968367
 Zn        22.3198565348       33.6731892065       13.1030342325
 Zn         7.3231652849       19.4213680979       11.8499010701
 Zn         9.3849646468       21.4893455018       12.5056344645
 Zn        15.3963526906       24.6055268351       15.3970393842
 Zn        18.5078042815       27.6544930245       15.4691122076
 Zn        21.7939788628       30.4587913268       15.5589684457
 Zn        24.6054999537       33.4993075656       15.2212874240
 Zn        33.5694030678       21.6346741760       18.3584153834
 Cl         5.1172649142       20.8438280068       28.4246392577
 Zn         9.3898302100       18.3627568787       15.7158145633
 Zn        12.4186195951       21.4946478085       15.3942395932
 Zn        18.5844793148       27.4886530180       21.4875183726
 Zn        21.5602738026       30.5264919027       21.4785890021
 Zn        24.4398961142       33.5072433975       21.2435731087
 Zn        33.5006640320       21.0622955893       24.2761492453
 Zn         6.3363701801       15.8080859318       21.3047920985
 Zn         9.4650674048       18.5262780577       21.4910397602
 Zn        12.4977522295       21.4916821008       21.6306488732
 Zn        15.4803987925       24.5270605568       21.4882845588
 Zn        21.4885114160       27.5672936388       24.6066989468
 Zn        24.4480286296       30.6201452359       24.6011977639
 Zn        26.8284201683       33.3428992239       24.0191305376
 Zn        27.6649200046       21.5554771200       24.6078493554
 Zn         9.7111090541        9.4701268339       18.3548054811
 Zn         6.4907787277       13.0148352937       23.2891146001
 Zn         9.2967207705       15.3795233709       24.5349203545
 Zn        12.3485014748       18.3563111173       24.6892066295
 Zn        15.3996243859       21.5565130824       24.6115647541
 Zn        18.5132794272       24.4551504006       24.5327384744
 Zn        24.6111188275       27.5732138895       27.7432617529
 Zn        27.0643080595       30.3669445890       27.4092409985
 Zn        24.6034529173       15.4004242821       15.3906002123
 Zn        18.5984470663        9.3818885843       27.4932864206
 Zn        10.5416606577       11.5963968916       28.2344174164
 Zn        12.2713729337       15.1427224567       27.9011215182
 Zn        15.3869525695       18.5134490508       27.5818295206
 Zn        18.5119628757       21.4893441748       27.5740941430
 Zn        21.5602614556       24.5223669765       27.5849223391
 Zn        27.6494590554       27.7397432690       30.2067184636
 Cl        11.5804619610       20.9885958927       34.9209217731
 Zn        24.6739124878       12.4217035409       18.4331734510
 Zn        30.6234419633       24.4449586915       12.6626750398
 Zn        13.0066606042       12.2529352892       30.8713387918
 Zn        15.6313213362       15.7153834140       30.5313667078
 Zn        18.5983569979       18.5228713296       30.6094860307
 Zn        21.5545555220       21.4776447246       30.5429016189
 Zn        24.6131845247       24.4576017585       30.6279270057
 Zn        30.7816740738       24.6113850622       24.5307178798
 Zn        21.6388176630        6.5084813084       21.6254597584
 Zn        24.3620374851        9.3876818098       21.5676494686
 Zn        15.7235221977       12.5026004851       33.3320277745
 Zn        18.6044291158       15.4009402989       33.5931362145
 Zn        21.4898557415       18.2775614027       33.5722893595
 Zn        24.2839691575       20.9926925690       33.4199369957
 Zn        27.0751394362       23.9514509923       33.1777656649
 Zn         6.3390264841       28.9779783391       19.4198575534
 Cl        35.1633312838       25.5487620438       22.4613172954
 Zn         6.4200461407       27.4757767575       21.8184783757
 Zn         9.5319304113       30.2907673938       21.6506767415
 Zn        27.6511241024       15.4735182384       12.2603417851
 Zn        30.6149911453       18.6002143306       12.4310281718
 Zn        24.5276236007       18.5118025741       12.4195501762
 Zn        24.4400744643        9.2991397513       27.3339906635
 Zn        24.3522903995       18.7702280437        6.4227340022
 Zn        15.4735219974       12.4236411474       21.5615253384
 Zn        32.6707524563       20.7229367602       11.7776789300
 Zn        24.4351562307       24.9415162415        6.4969576694
 Zn        30.3670750430       15.0665221431       27.4891993508
 Zn        33.6785831035       24.1922893553       21.3066509443
 Zn        30.3726656060       30.4673008846       18.3632464107
 Cl        29.4080875285       10.6162914605        9.7802978290
 Zn        21.1465694807       15.7192940300        6.5843790822
 Zn        24.1984894240        6.3359344977       18.6882486145
 Zn        27.5731824971        9.3822821187       18.4339332785
 Zn        33.6637517206       12.5090425557       21.7272534072
 Zn        27.7410666050       18.5256668884       27.6543045908
 Zn        27.4118789398       12.1097585344       27.3974335158
 Zn        27.6561349951       12.5740531141       21.5520684069
 Zn        33.5786598357       15.3970362673       24.7743645117
 Zn        24.6072092579       21.7259653660        9.5441354476
 Zn        27.5612013333       21.4802674755       18.5934296660
 Zn        30.2837160282       21.8821490505        9.4692145857
 Cl        17.1362910282       20.1217472237       34.7809903138
 Zn        16.6986259386        6.5798459605       26.9923872461
 Zn        30.6808514488       24.2948069869       18.3686994363
 Zn        33.6636122748       18.7638222083       15.7255071596
 Zn         9.9595888117       27.7494994261       12.1030047449
 Zn        11.9327207753       29.7215100616       12.0837655777
 Zn        15.9642094911       33.3394734232       13.3414181812
 Zn        30.5428098326       18.5171227503       18.5309674183
 Zn        21.4894773978       18.4393384959       15.3944650975
 Zn         6.5726430696       23.3754100999       13.0158181080
 Zn        12.3301040321       27.5677877128       15.3912006182
 Zn        15.3974158884       30.7026384241       15.5498114411
 Zn        18.9426651141       33.4238058894       15.8023953870
 Zn        27.4800785129        9.3764049363       24.3585182665
 Zn         6.4025851851       21.3173099853       15.8074576287
 Zn         9.3056677267       24.4555165702       15.3944169434
 Zn        15.4686118410       27.5833283786       18.5153913647
 Zn        18.6028281468       30.5348728382       18.5905137886
 Zn        21.6462102401       33.5000620781       18.5168372284
 Zn         6.5041177851       18.4303825518       18.3692887917
 Zn         9.4751876605       21.4890271140       18.5981122009
 Zn        12.4123581442       24.5253868266       18.5060022373
 Zn        18.4205847624       30.6097478021       24.3578474791
 Zn        21.3208027778       33.5913909526       24.2707999348
 Zn        30.6137710930       21.4033635949       21.4877969013
 Zn         6.5809652150       18.9291765396       24.2835543521
 Zn         9.5458820788       21.7203688349       24.5262380761
 Zn        12.4313477629       24.6924247937       24.5235906927
 Zn        15.5477725537       27.5701298721       24.5224453000
 Zn        21.4809529968       30.5413759480       27.5809986701
 Zn        23.2975037251       33.3430589245       27.0878214397
 Zn        21.4938302475       15.3948211589       12.3555700137
 Zn        18.5122541965       21.5583237338       15.4087147635
 Zn        21.6477299085       24.5326507313        9.5371410961
 Zn         6.6637184406       15.8871268943       26.7407205267
 Zn         9.4449988427       18.4326776090       27.7377842925
 Zn        12.2741695663       21.3973566365       27.7242767936
 Zn        15.5545792682       24.6795109424       27.6404343039
 Zn        18.4352227128       27.4091550115       27.6533961335
 Cl        22.4366449002       13.9556255418        5.3315497120
 Zn        20.9103567607       12.1086696084        6.2483828500
 Zn        24.0331495923       12.9374871220        6.8252649572
 Cl        20.1664517594        5.1797704469       22.8678802388
 Zn        12.1859484806       18.5182450326       30.5403694384
 Zn        15.5552192353       21.7199229496       30.4639411005
 Zn        18.3611214281       24.6025477280       30.4574645330
 Zn        21.4917086121       27.5025648978       30.7767523310
 Zn        26.9866754667       16.2889704731        6.5776929907
 Zn        29.1317537651       19.6692693879        6.3351364531
 Zn        21.6404888258       12.5200945984       27.6432837719
 Zn        12.9228776371       16.1331073857       33.2485715280
 Zn        15.7242911434       18.9281547098       33.4216538610
 Zn        18.5138556052       21.5612611664       33.5687569826
 Zn        21.3135840183       24.2775093886       33.5847995268
 Zn        23.7941140705       26.9082054842       33.4272375793
 Zn        12.5927586659        6.4142242355       18.1935724709
 Zn        18.4363529468       18.5067864749        6.4995143463
 Cl        13.5260285759        5.7959529424       16.1986813182
 Zn        18.5080838094       24.6204561302       12.4252435111
 Zn        21.5632037508       24.6066471279       15.3978336516
 Zn        17.7001745246        6.3341624918       13.0118145743
 Zn        24.6037797643       24.5256338182       18.5286530705
 Zn        15.3854718523        9.6193347720       18.3535451426
 Cl        10.0519034495       29.7015270127       10.6867296757
 Zn        27.6601884063       24.6095791514       21.5655009215
 Zn         9.3033401617       15.6348305952       12.6680241058
 Zn        18.4368544017        6.5036461541       18.4478469307
 Zn        27.7452005755       12.4363219839        9.7911490057
 Cl        22.8847072027        5.1647146898       20.1206826225
 Zn        24.5312828982       12.4254000946       24.4512789393
 Zn        24.5294674565       21.4905948769       15.4745540767
 Cl        19.9284973982       34.8127462467       22.9543682748
 Zn        27.6424205070       15.2489377061       24.4529776138
 Zn        18.7635376596        6.4068850810       24.1983191349
 Zn        18.2769763663        9.5482964471       15.5437884719
 Zn        18.4434781809       15.4759119892       21.5680565428
 Cl        20.1371012256       22.8669641849        5.2139537255
 Zn        18.9281785831       24.3668068358        6.4857392637
 Zn        33.7496493687       17.6229840179       26.9095014288
 Zn        24.6963496186       27.5764674059       15.5568775613
 Zn        21.8078358122        9.7019878643       30.4488421853
 Zn        21.0508555825        6.1679547724       12.1927948976
 Cl        17.0725230108        5.2408558988       19.8407709974
 Zn        28.2280971260       10.4554570047       11.7670404095
 Zn        30.3758677106       13.0165838696       12.5930870025
 Zn        33.4177667595       16.7163379433       12.9148808513
 Zn        33.5761451325       18.4265281966       21.4861916296
 Cl        17.9651032532       25.8820287899        4.9750388703
 Zn        27.4989528794       15.0696046899       30.2942616431
 Cl         5.1893978496       17.6525558527       25.9111005770
 Zn        13.0912101308       33.5115032576       16.7897471725
 Zn        27.5815748512       24.5199474359       15.5524991761
 Zn        27.5792973130       18.5210951424       15.3978171280
 Zn        21.4807901248       12.1897835753        9.4618112363
 Zn        30.6910555782       27.5639671822       21.5641829123
 Zn        21.7165022064        9.3912944860       24.2807590536
 Zn         6.5725039408       26.6583090933       16.0503704147
 Zn        12.5129766648       30.6194175063       18.5211574891
 Zn        15.8773241955       33.6617597247       18.7756926308
 Zn        21.5540714138       18.5117533430       21.5571846474
 Zn        21.5660070114       12.4157268383       15.3974008282
 Zn        28.2184350372        7.3265899085       20.5708264710
 Zn        30.5399305226        9.6421966629       21.6353906076
 Zn        15.1451311125       12.5158371437        9.7116771035
 Zn         6.4947275420       24.3614656260       18.8429454748
 Zn         9.2941316645       27.5539195507       18.4367709982
 Zn        15.7124427506       30.6137610099       21.7140454699
 Zn        18.4418621371       33.4932302776       21.6520975423
 Cl        22.9030792523       19.7950626226       34.7645785129
 Zn        12.4289710848       21.4868645932        9.2992992490
 Zn         6.5021927199       21.5685073444       21.5619671550
 Zn         9.6179116437       24.6162636818       21.7184163008
 Zn        12.3570236918       27.4175606827       21.5684836358
 Zn        19.3553128461       32.6646617674       28.2301210005
 Zn        24.1104588335        6.7340847179       13.2566008660
 Cl        14.5563444783        5.1248144713       22.7628341145
 Zn        33.4176974612       13.2490713048       15.9860725020
 Zn        15.6299262254       24.5316351539        9.3909572840
 Zn         6.3331345888       22.2992927294       26.9901265044
 Zn         9.7066009491       24.8529603911       27.5689834061
 Zn        12.5995323978       27.8132263566       27.4788504661
 Zn        15.5687473415       30.6180752254       27.4114484010
 Cl         5.2357671684       20.1415205943       22.9059811981
 Zn        30.6280841387       21.4848806716       27.7283904635
 Zn        20.6615878944        7.2572222556       28.1476806694
 Zn         6.1617131314       18.9555801265       27.8114644533
 Cl        26.5771372367       34.1848702380       16.2895776007
 Zn        12.5826665955       24.8551914266       30.3660585748
 Cl        19.1667225226        5.1267039134       11.5742463375
 Zn        18.2734758682       30.2841477564       30.5316079960
 Zn        15.7073330062        6.4891711890       21.2315039772
 Zn        10.7841158008       20.4207648567        6.4120827618
 Zn        12.1049076854       19.1112052689       33.8318712384
 Zn        13.0948508703       22.3137175576       33.6804215748
 Zn        15.2288826755       24.5219838181       33.5786529415
 Zn        18.2629821706       27.4030915168       33.6675244145
 Zn        13.0008502785       23.7829145014        6.6529772155
 Zn        18.4407292412       18.5161523434       12.4348123088
 Zn         6.5036568405       24.5305062227       24.8577350050
 Zn        12.5188634328       12.3508028068       18.4469239274
 Zn        26.9890969131        6.4935230430       16.7069032264
 Zn        33.6661185490       10.9462040357       19.3374333949
 Zn        18.5132214827       27.8169656210        9.4588197742
 Cl        23.7946280241       13.4999355375       34.3397000094
 Zn        12.5935807078       30.6167754046       24.4320715421
 Zn        18.5269830543        9.4747752760       21.4682437052
 Zn        12.5275285957       18.1901944606        6.4106834301
 Zn        24.6056914953       21.4872053738       21.5639592138
 Zn        32.7529548017       28.1468733039       19.4198961520
 Zn        21.5595195308       21.5568556569       12.4380280377
 Zn        27.8196954352       27.4128744197       12.5966107035
 Zn        15.1426721066        9.7134785245       12.5076182561
 Zn        18.2686744712       15.5437089207        9.5459133379
 Zn         9.7030965477       18.2018105726        9.5515919349
 Zn        15.4615934300       21.5602634860       12.4207746230
 Zn        15.4800821449       18.5218775700       15.4722680403
 Zn        18.4422279201       12.5013967858       18.4409137575
 Zn        18.5305202539       12.4234461976       24.5991631183
 Zn        21.5516342819       15.4747651920       24.5280882880
 Zn        24.6188480070       18.4352324195       24.6077595327
 Zn        27.6510776172       15.4703130729       18.4337906677
 Zn        15.4743094798       15.2187071662        6.4973411767
 Zn        14.8984695347       28.3025055121        7.3195573273
 Zn        24.6817730422       24.5204212202       12.4224161413
 Zn        21.4733676909        9.4654519421       18.5150972989
 Zn        30.4632102903       15.3176409522       21.6427487185
 Zn        24.7758867966       27.5635930385        9.7033492203
 Cl        22.3731357013        5.2165949205       14.0788720478
 Zn        18.6927075365       27.7338187268        6.0682730567
 Zn        11.0318184603        6.3344216822       20.5860932622
 Zn        20.4957878798       29.1389343406       33.6691661674
 Zn        19.5857242544       10.7855045295       33.5842201570
 Cl        34.8754115953       22.8777787084       19.8626029655
 Te        29.3214346405       14.2780741194       10.6495827094
 Cl        14.7283385313       22.9370123156       35.2258199752
 Cl        29.4726320870       29.3697420604       30.2120835824
 Te        32.8596160917       29.0263428147       21.9426092230
 Te        29.0202342182       20.0914599685       10.9016011054
 Te        11.0332042008       32.7809609327       18.1210491490
 Te        16.9741091298       23.0907185241       13.9183780272
 Te        26.0437547491       10.9484153706       22.9086915823
 Te        20.0146301147       20.0143239406       13.9109582358
 Te         7.8326645692       17.0200490641       10.9158171416
 Te        13.9098886909       16.9332540691       23.1095860272
 Te        29.2125108888       13.9662999144       16.8727433589
 Te        23.0400325273       10.9846915538       19.9437349032
 Te        29.1095859667       22.9892244493       20.0491971223
 Te        16.9490059977       20.0391421919       23.0771228570
 Te        18.1361041664        7.2491024818       29.0006462398
 Te        17.0678110568        7.9190027633       22.9303507306
 Te        14.0036855294       19.8657294813        7.8699109820
 Te        16.9571949580       17.0026050872       20.0498444448
 Te        19.9802537319       10.9611968617       16.9365255248
 Te        23.1412240907       28.9750530767       13.9329291871
 Te        10.8640342181       32.0929814489       23.0006388808
 Te        29.0980756233       10.9905886033       19.9280563638
 Te        20.0598949589       22.9717560636       23.0456363974
 Te        17.0787647040       29.0498323479       26.0315592201
 Te        12.7148637341       24.7583011944       32.9074007305
 Te        23.1272344888       26.0291668492       16.9718157415
 Te        11.1779758056        7.4111209732       22.8924355762
 Te        29.0499756703       16.8251570014       26.0807639319
 Te        29.1198506664       19.9359454203       23.0746669330
 Te        14.0182146680       26.1490980413       26.0697239583
 Te         7.9117336918       10.8357108109       17.0299977040
 Cl         4.9849212493       22.5048463073       14.4196604214
 Te        25.9715107627       20.2076662593        7.8706001929
 Te        22.9183217763        7.8741534143       16.9925281615
 Te        17.0248234257       20.0260701502       16.9688653371
 Te        17.0514989595       29.0381423976       20.0497332971
 Te        16.9618660690       13.9403664589       23.1117743624
 Te        10.9734904315       20.0037340504       10.9276403319
 Te        29.1081721031       16.9340211096       20.0463265954
 Te        13.8386401359       14.0200536564       13.9897525534
 Te        26.1371261547       13.9361906852       13.8070469860
 Te        16.8492613906        7.9195972125       16.9229634718
 Te        26.3108815668       29.1841480219       16.7746063235
 Te        26.1341115942       26.0868629758       26.1710629729
 Te        10.9503676565       17.0636953489       14.0275511144
 Te        29.0880960139       17.3814139611        7.4466173280
 Te        13.4265679255       11.0108252855       10.9926714474
 Te        16.9650171440       26.1027520899       16.9396961159
 Te        20.0513009245       10.9779689504       22.9684480304
 Te        23.0812680545       13.9221274374       16.9346245934
 Te        20.1138800116       29.0634373878       17.0114570922
 Te        23.0591739909       22.9044527638       32.1524278954
 Te        20.0282561565        7.8934776586       20.0084033555
 Te        26.1479645015       23.0492183822       23.0724800527
 Te        13.9511921801       26.0427534550       19.9996444243
 Te        13.9975371552       10.8387738678       23.0829369969
 Te        20.0461454635       10.9869951482       29.0485443424
 Te        23.2180732443       32.0792939148       16.9775259205
 Te        26.0709463766       17.0336379492       10.8152318240
 Te        25.9987572046       26.0756941478       32.3124785364
 Te        10.8132685463       16.7914040208       26.2157595231
 Te         7.4069252022       17.0614933805       28.8759991276
 Te        23.0851587668       23.0046143018       20.0394977620
 Cl         5.2471057748       22.9660330477       20.2016839925
 Te        21.9624241524        9.9677538939       32.9590684050
 Te        25.7947075357       29.2785684967       29.3381727218
 Te        13.8893850038       26.1037542362       13.8552435900
 Te         7.8738795685       17.0864941694       23.0102824659
 Te        32.4403155500       14.3662622669       13.8055492400
 Te        23.2741417309       13.7295747266       29.2271234255
 Te        23.1034804137       23.1268668240        7.9036977856
 Te        14.2265487491       14.3054935063       32.1721072269
 Te        26.0461293735       19.9287724694       20.0354878905
 Te        23.0175442844       10.9485060788       25.9684827386
 Te        10.8417689540       17.3534372308       32.5671555673
 Te        26.1245592468       19.6887902207       32.1254379500
 Te        17.0132986588       26.1798320064       10.9000964639
 Te        23.0961163832       16.9168761421       26.0885866620
 Te        16.9338701224       19.9853221704       10.9065229142
 Te         7.4061786221       28.8444118996       17.1161238774
 Te        14.2799545689       32.0112274478       20.0509727354
 Te        20.0105507642       13.8816339106       13.8838505906
 Te        29.0432509541       22.9674498209       14.0327355799
 Te         7.9166733739       22.9683016898       17.1279822072
 Te        20.0320860592       20.0162550201        7.9047671995
 Te        18.1517935069       29.9634552695       33.0451755203
 Te        13.9381264830       20.2793244746       32.1079653049
 Te        29.1905849003        7.8539573073       22.9377916993
 Te        16.9657905425       29.2330201438       13.9785341645
 Te        22.9749162087       17.0292872976        7.8750144026
 Te         7.8922636534       19.9880804798       20.0135360518
 Cl        12.2908193158        4.6118286257       19.7260589159
 Te        11.0060897642       10.9156516066       20.0781998098
 Te        10.6341432626       20.1378540666       29.2858240772
 Te         7.2632773708       21.9490623252       10.9936482241
 Te        32.1822324302       22.8869776631       23.0039547222
 Te        29.1049869219       29.4858998744       26.1542729847
 Te        10.9121161716       13.8606641985       23.1144466731
 Te        29.1487618278       22.6698867746       32.5452552340