    1259
 i =      128, E =    -43823.2911538207
 Zn        32.2620405035       19.8480510351       41.0011277381
 Zn        35.3764571610       19.9975098068       13.7276021706
 Zn        32.2521848455       41.0789174483       19.6862142266
 Zn         8.0799498859       28.2520426617       14.4738162832
 Zn        14.2182452911       34.7753118376       14.0442698747
 Zn        20.6696485599       40.8517334348       14.4668735932
 Zn        40.9928112064       27.0296883843       14.9473225574
 Zn         7.9985318416       25.4800946347       17.2325445399
 Zn        10.7667075588       28.9892504369       16.8224719166
 Zn        13.7995114883       32.1088492873       16.7361628694
 Zn        16.8311324793       35.1989193406       16.7398984574
 Zn        19.9967103203       38.2236656244       16.8226307617
 Zn        23.4453774136       41.0021912774       17.2292233788
 Zn        25.3180394104        7.6636177565       13.6452038225
 Zn        40.8417918363       14.4596147088       20.6624847586
 Zn        22.9559931327       32.0974571096       19.8488656074
 Zn         7.9186534194       22.7855993009       20.0080031290
 Zn        10.8662763423       25.9017376532       20.0027837373
 Zn        13.8719388876       29.0657087670       19.8516945935
 Zn        16.8982628212       32.1018937650       19.8353773827
 Zn        19.9256567948       35.1301393480       19.8468489601
 Zn        23.0347525720       38.1367127624       19.9913784727
 Zn        26.2164768137       41.0826604347       19.9282080043
 Zn        35.2890902496       10.9266816476       23.1083430808
 Zn         7.9922197769       32.2555649554       29.1516916078
 Zn        34.3790235726       22.0590278089       41.2454458880
 Zn        32.5077576106       13.4813119511       11.5930606319
 Zn        11.1181642369       13.9674283397       19.6888729787
 Zn        11.1106314235       35.0310123578       29.3032498521
 Zn         7.9249506645       19.9986871925       22.8562503334
 Zn        10.9400938589       22.9527671344       22.9533260665
 Zn        13.9567097775       25.9797452651       22.9452269390
 Zn        16.9086650177       29.0758432700       22.9324807031
 Zn        19.9296556926       32.0959468658       22.9328700777
 Zn        23.0225616353       35.1116951263       22.9402361128
 Zn        26.0510281364       38.1345586543       22.8777621848
 Zn        29.0679255130       41.1547072678       22.7770931512
 Zn        28.3363231161       14.5400744173        8.1525136831
 Zn        13.9728596431       37.8922943765       29.3064541044
 Zn         8.0694079382       17.2312387924       25.5627681684
 Zn        10.8773960634       20.0147478068       25.9696417004
 Zn        13.9537243517       23.0207225084       25.9790477720
 Zn        16.9821904256       26.0434556239       25.9725149086
 Zn        19.9361510296       29.0794101296       25.9746405764
 Zn        23.0249586315       32.0854998297       25.9731960831
 Zn        25.9859652773       35.1187053773       25.9680913918
 Zn        28.9948842045       38.1408356938       25.8852453258
 Zn        31.8577381232       41.2375611348       25.5701830859
 Zn        39.1246308568       19.5883831353       11.8352688780
 Zn        16.7444752090       41.0761719933       29.1457393659
 Zn         8.2366566046       14.4657367527       28.4047623173
 Zn        10.8494767395       16.9081117120       29.0091053673
 Zn        13.8759733398       19.9969970960       29.0736524027
 Zn        16.9076342897       23.0135441237       29.0748361499
 Zn        19.9460409923       26.0467919701       29.0649408313
 Zn        23.0237036471       29.0751786686       29.0657235773
 Zn        26.0501696505       32.1673556900       29.0719718571
 Zn        29.0723207553       35.1358490439       28.9987143228
 Zn        32.0935906554       38.2977407724       28.9953476087
 Zn        34.4611741294       40.9104534289       28.3364067156
 Zn        13.8857058110       16.9880761114       19.8461318332
 Zn        16.9809873234       19.9328458605       19.9336913310
 Zn        11.6039596852       13.5559243228       32.4244931166
 Zn        13.8067862683       16.8971640943       32.1810464952
 Zn        16.9035937366       19.9252757461       32.1726159524
 Zn        19.9319271084       23.0161699846       32.0970293429
 Zn        23.0211807442       26.0479884220       32.0818509012
 Zn        26.0542953766       29.1529415444       32.0908553208
 Zn        29.1492575345       32.1912898417       32.1004200322
 Zn        32.1742119589       35.3634846692       32.0952192692
 Zn        35.0981588030       38.3185368078       31.5275795437
 Zn        13.6337878170       25.8210776262       10.7784138057
 Zn        19.9409181924       22.9681125852       19.9209649464
 Zn        14.2894964799       14.2873906946       34.8761955890
 Zn        16.9016827852       16.9781994493       35.2728477799
 Zn        20.0061034857       20.0007196157       35.1208279643
 Zn        23.0248411434       23.0267729698       35.1097754487
 Zn        26.0471659738       26.0535509245       35.0466103665
 Zn        29.0820811154       29.1507794555       35.1203086695
 Zn        32.1768289042       32.2599649667       35.1954455866
 Zn        34.7890603130       34.9671996325       34.7021805819
 Zn        16.9699549999       28.9951722480       10.6871633211
 Zn        17.8058257795        7.9072519646       31.2739919846
 Zn        32.1673113311       19.9961794036       10.6986894321
 Zn        22.9564348734       26.0462949304       19.9237362741
 Zn        17.4818455212       14.2909528155       38.0622379917
 Zn        19.9922798940       16.9712607974       38.2997270036
 Zn        23.1108723055       20.0164794222       38.1317110299
 Zn        26.0521990028       23.0148369135       38.0546092925
 Zn        29.0005981823       25.9762001347       38.1182336477
 Zn        32.0984042908       29.0745220555       38.2174406442
 Zn        35.5306043643       32.5084028606       37.3201711144
 Zn        20.0002851596       32.0326600922       10.6901144800
 Zn         7.9939261383       19.7561463623       16.8148040778
 Zn         7.7511795223       14.6937326456       22.1225428205
 Zn        11.0265234411       17.0571569941       22.7761296125
 Zn        23.1766664845       35.3635271115       10.7797744678
 Zn        13.9633615259       19.9945673190       22.9496073018
 Zn        26.0386347458       29.0728714989       19.9207724472
 Zn        29.0733474173       32.0923962933       19.9276144666
 Zn        20.6621358872       14.4712474587       40.8351663270
 Zn        23.3687779070       17.1474848566       41.1722355970
 Zn        26.2111925360       20.0008426590       41.1456646397
 Zn        29.0050666811       22.8559220575       41.0792607402
 Zn        31.7737226485       25.5602859068       40.9321482213
 Zn        34.5326347649       28.4024017734       40.8359194592
 Zn        34.4622399351        8.0832830736       20.6732874700
 Zn        11.0193863746       22.7036335245       17.0496952282
 Zn        13.8068073160       25.9849085928       16.8217129856
 Zn        16.8343354487       29.0789579701       16.7462713347
 Zn        35.3569114329        7.6570608957       23.7683086660
 Zn        29.2324229835       37.9813000675       19.8369193697
 Zn        20.0047636419       10.7717479613       32.1031695698
 Zn        19.8496745366       16.7428948608        7.9911750929
 Zn        22.8548747132       19.9941124621        7.8565515062
 Zn        25.9705278375       23.0343660881        7.8464815065
 Zn        28.9998777797       26.2189607414        7.8500666421
 Zn        32.2520905810       29.2275328589        7.9181613968
 Zn        32.1702546232       10.7735562348       19.9935016410
 Zn        16.9827105778       22.9602119945       22.9511141509
 Zn        32.0138674586       35.1939875435       19.8492781537
 Zn        19.9341335564       26.0430437799       22.9387401993
 Zn        23.0206246416       13.8145394111       32.1739488089
 Zn        19.6852607771       13.9666628938       11.1157544730
 Zn        22.7778654226       17.0657563615       11.0162690718
 Zn        25.9710573505       20.0049897073       10.8664187426
 Zn        29.0025517900       23.0942749877       10.8574880915
 Zn        31.9384285097       26.2969105718       10.9446571762
 Zn        34.9633359100       29.3182336093       11.1009323353
 Zn        35.4388955300       13.7993121666       20.0003485333
 Zn        22.9614285779       29.0771079871       22.9423726529
 Zn        26.0429298152       32.0934786809       22.9477922961
 Zn        26.0498991497       16.8981079667       32.0989634364
 Zn        19.6930826804       11.1103361854       13.9708670767
 Zn        23.1067037127       13.8049974239       13.8086268842
 Zn        26.0536940347       16.9024205128       13.8729085588
 Zn        29.1489500581       19.9240259043       13.7983907030
 Zn        32.1766621769       22.9546455076       13.7958676033
 Zn        35.2088934226       25.9656192107       13.7930844361
 Zn        37.8242353376       29.3801004554       13.9722268935
 Zn        29.0729943693       35.1139777205       22.9431695081
 Zn        32.1024570196       38.2125395860       22.8630137483
 Zn        34.0554512503       40.9928392592       21.9608833918
 Zn        31.2782403000       17.7299660655        7.8383165737
 Zn        13.7251469179        7.5826295195       25.3028156105
 Zn        19.8476644014        7.9935188774       16.7451220487
 Zn        22.7800184452       11.0207342370       17.0554198740
 Zn        26.0572042655       13.8785207533       16.8953195499
 Zn        29.1605301426       16.9002121648       16.8312158889
 Zn        32.2510410232       19.9141457392       16.8262499505
 Zn        35.2074570301       23.0196974060       16.8337227514
 Zn        38.2125564155       26.1285020954       16.8970528577
 Zn        41.0832000304       29.2400493526       16.8149866451
 Zn        29.0653242648       19.9360600070       32.0783247248
 Zn        34.4594831522       20.6744832174        8.0732834175
 Zn        35.2821494117       23.7587880555        7.5081035166
 Zn        35.3567523820       25.3132529358       41.3374530960
 Zn        29.0759192843       16.9075416595       10.7733041966
 Zn         7.5911367682       35.2744753785       23.6122024139
 Zn        22.8612871109        7.9238134306       20.0027883051
 Zn        25.9733630531       10.8660796669       20.0100220847
 Zn        29.0852993403       13.8698316559       19.9226760012
 Zn        32.2462519327       16.8388140004       19.9135915894
 Zn        35.1947682006       19.9332323189       19.9277076921
 Zn        38.1419773281       23.1035475463       19.9945595587
 Zn        41.1588788554       26.1485914418       19.9313832838
 Zn        13.6442946129       41.3352975027       23.6798853746
 Zn        19.9208642278       32.1643434629       16.7480313246
 Zn        35.0303498850       37.8144966579       19.6059623711
 Zn        23.0132209473       35.1968936485       16.8211848252
 Zn        26.2983896857       37.9897745491       16.9920110332
 Zn        25.9650258179        7.8550034543       23.1036357568
 Zn        29.0046141907       10.8705062361       23.0363834762
 Zn        32.1738216449       13.8680029592       22.9563537044
 Zn        35.2068152030       16.8993415284       23.0137106553
 Zn        38.1447679522       20.0029974835       23.0342061276
 Zn        41.1545736689       23.1860937666       23.1783002341
 Zn        31.3481810933        7.9111733672       17.7330171072
 Zn        29.2307369050       41.0743953345       16.7406992818
 Zn         7.5829218861       23.7697175941       35.2767755117
 Zn        19.8309218968       32.2632963368       41.0026645423
 Zn        32.1022541730       22.9595975596       32.0916083293
 Zn        35.2890813626       23.1798435893       10.8527814460
 Zn        29.0086625332        7.9219558205       26.2083003077
 Zn        31.9439668264       11.0198878520       26.2746006614
 Zn        35.2084414485       13.8031767499       25.9571252157
 Zn        38.2185146866       16.9066583765       26.1274212389
 Zn        41.1574240485       19.9918368151       26.1402819134
 Zn        32.2571498541        7.9928259214       29.2327206949
 Zn        35.0325521837       11.1139671394       29.3216468903
 Zn        37.8249425135       14.0425291763       29.3847155830
 Zn        41.0806135329       16.8288075457       29.2405140698
 Zn        38.1374230471       14.2110192598       17.4844676875
 Zn        22.0519224585       34.3111196500       41.2475713326
 Zn        35.1326059174       26.0492601003       32.0891528139
 Zn        13.7941829015       10.8672144038       25.8914540959
 Zn        16.9125289778       13.8704879621       25.9905304237
 Zn        19.9271856870       16.9074311453       26.0507014283
 Zn        38.2244174371       29.0042051754       32.0233008554
 Zn        25.2431842132       35.3544561034       41.4067162674
 Zn        38.2217545301       13.6375288031       23.1110489904
 Zn        41.2351666572       17.1409911674       23.3588086075
 Zn        41.0921229462       31.2740227739       31.1981558319
 Zn         7.6637898274       13.6444690323       25.3215176798
 Zn        10.9456642281       13.7153465867       25.8959722763
 Zn        13.8783436578       16.9034377395       25.9900176589
 Zn        16.9091097839       19.9256052077       26.0492796246
 Zn        19.9418624444       22.9584980946       26.0460157739
 Zn        22.9609445363       26.0413547840       25.9817844974
 Zn        26.0467150857       29.0720422736       26.0391635279
 Zn        29.0798785335       32.1001081398       25.9755937965
 Zn        32.1052713899       35.1996784256       25.9710459001
 Zn        35.3699926498       38.2202664078       25.8935558126
 Zn        27.0370285849       15.0275075671       40.9889578934
 Zn        12.0091689701       19.5228612931       38.8860721418
 Zn         7.9035533609       31.1859439755       17.6493954892
 Zn        11.5980968729       35.4464482756       16.4888746701
 Zn        13.5491227692       37.4032226456       16.4907691096
 Zn        17.7352846114       41.0879940568       17.6449084961
 Zn        23.0236691544       19.9374999494       26.0500546126
 Zn        13.6274814558       23.1038310516       38.2095843820
 Zn         7.8382313480       28.6648113158       20.2482648777
 Zn        10.7786206204       32.0234955199       19.9239096997
 Zn        13.8057296011       35.1867120432       19.8415857524
 Zn        16.9091030728       38.2212567363       19.9193900246
 Zn        20.2507835746       41.1616964892       20.2431398009
 Zn         7.5864001072       25.1551984622       13.6444029700
 Zn         7.8500550873       25.8908770873       23.0985638990
 Zn        10.8800107717       28.9237990228       23.0224480724
 Zn        13.8693480135       32.0988282997       22.9345226791
 Zn        16.9008532290       35.1290593323       22.9360952215
 Zn        20.0009620742       38.1283346631       23.0167600064
 Zn        23.0355449281       41.1562878947       23.0149472091
 Zn        11.9082030585       29.4025738120        9.8018374564
 Zn        28.7508919592        7.8393353621       20.2566233344
 Zn        16.9089636767       26.1331860328       38.1391116134
 Zn         7.8544709036       23.1020184975       25.9007972854
 Zn        10.9433304353       26.0477977748       26.0442878942
 Zn        13.9596171465       29.0695140550       25.9781228022
 Zn        16.9042239278       32.1622607471       25.9796844497
 Zn        19.9965541302       35.0484428046       25.9787645318
 Zn        22.9510912302       38.1254258725       25.9733248530
 Zn        25.8193269435       41.1512275362       25.7372077605
 Zn        14.2205768543       31.4456693198       10.8569969685
 Zn        26.0434776974       23.0199530601       26.0382693651
 Zn        38.3148836497       16.9077936074       19.9311665370
 Zn         7.7411401079       27.0211723709       34.2956039000
 Zn        11.1159241649       29.3869263897       34.9563832050
 Zn        13.9761801642       32.1797605083       34.9532087657
 Zn         7.8397809004       20.2652492185       28.7391192658
 Zn        10.8697246750       23.0993222767       28.9892057698
 Zn        13.9594822536       26.0559423639       28.9984883555
 Zn        16.9129209562       29.0711407258       28.9943289986
 Zn        20.0006465400       32.0895099656       28.9912749140
 Zn        22.9511612773       35.1207227941       28.9975257056
 Zn        25.8966408612       38.1405212013       28.9245717240
 Zn        28.4224603164       40.8438099503       28.3485572450
 Zn        17.5529721370       34.7790883109       10.8569592452
 Zn        19.8289511585       29.1598229044       37.9613800274
 Zn        16.8299067512       19.6843471664        7.9229693803
 Zn        19.9948247699       22.7823328251        7.8438263951
 Zn        23.1862282709       25.8081276932        7.8438880116
 Zn        26.1527381955       29.0126224900        7.8405337594
 Zn        29.2423706832       32.1773684520        7.9159466208
 Zn        29.0774255429       26.0506344003       26.0366601135
 Zn        40.9076891445       20.5750328575       20.5698161339
 Zn        25.9755848824       10.9370216121       13.7187610073
 Zn        22.7177653440       32.0129724311       37.9737616598
 Zn        19.8402842272       19.8443830234       11.0158419086
 Zn        22.9591242667       22.9468189913       10.8671163207
 Zn        26.0574851831       26.0474570082       10.8674462358
 Zn        29.1562271448       29.2253253305       11.0141078795
 Zn        32.1002311484       29.0791626746       25.9805115896
 Zn        16.8268321638       29.3126420554       41.0078583549
 Zn         7.9178640485       17.7282295706       31.2750918602
 Zn        10.7751543850       20.0054890791       32.0993540517
 Zn        13.8747391534       23.0249951499       32.1022631536
 Zn        16.8957732792       26.0550883327       32.0980511351
 Zn        19.9385560308       29.0686628584       32.0750553521
 Zn        22.9532889252       32.1696062991       32.0904451587
 Zn        25.9877321301       35.2149150119       32.0903738750
 Zn        29.0668305497       38.2958246883       32.0141055013
 Zn        29.3129723041       16.8299724470       41.0088489735
 Zn        16.8419108538       13.9633441467       14.0318737248
 Zn        19.8470914936       16.9929438734       13.8105307755
 Zn        22.9625633554       19.9975582248       13.9503427172
 Zn        26.0520447349       23.0157597359       13.8834819555
 Zn        29.0743614203       26.0523520946       13.8867182596
 Zn        32.0056565228       29.2216009949       13.8727781348
 Zn        35.0314830140       32.1713976129       13.9598191745
 Zn        35.1939362370       32.1036896460       25.9734378573
 Zn        19.5954119496       37.0927199654        9.8716227215
 Zn        39.1252554829       11.8316360322       19.5897606173
 Zn        20.7357903317        8.0843727581       34.4518645035
 Zn        13.8785226877       13.8050933611       29.0815269122
 Zn        23.1115018816       10.9295161913       35.2908908241
 Zn        25.8967127823       35.3586407995       38.0560450673
 Zn        19.8520531593       13.8786623948       16.9917102306
 Zn        22.9630607650       16.9018856177       16.8948664201
 Zn        26.0595475225       19.9291039174       16.8976671071
 Zn        29.1450863835       22.9527909578       16.8325458778
 Zn        32.1623448925       26.0489252941       16.8305114901
 Zn        35.1957883305       29.1481173470       16.9856236021
 Zn        38.1376577957       35.2803647535       25.8213635227
 Zn        13.8085711938       20.0783077121       35.2797920624
 Zn        16.8985896779       23.0282548548       35.1913148472
 Zn        19.9330806541       26.0532028157       35.0442611330
 Zn        22.9540923622       29.0781912890       35.0400692309
 Zn        25.9846933045       32.1785818218       35.1279778683
 Zn        28.9960828934       35.3008398395       35.1186939619
 Zn        16.8201329194        7.9915753505       19.7677513731
 Zn        19.8532380816       11.0341569313       19.8386319928
 Zn        23.0239386358       13.9590334388       19.9373167283
 Zn        26.0627046204       16.9084315482       19.9250437755
 Zn        29.1499133197       19.9190316742       19.8523748148
 Zn        32.1064222858       22.9519245826       19.8531308557
 Zn        35.1167392370       26.0439435378       19.9204923119
 Zn        37.9825988714       29.1553642182       19.7724765342
 Zn        41.0788653906       32.1866711119       19.7710694277
 Zn        31.6042922539       38.3841502629       35.0156849399
 Zn        23.0185770881       29.0782722150       16.8378843180
 Zn        16.9003615972       16.8984587601       29.0895651488
 Zn        20.0111688950        7.9212553515       22.7887014966
 Zn        22.9651205000       10.9384884498       22.9492184932
 Zn        26.0505072703       13.9515272758       23.0128458904
 Zn        29.1452918033       16.9098010791       22.9448413567
 Zn        32.1064294026       19.9273944728       22.9441710377
 Zn        35.1150080672       23.0200845339       22.9510587908
 Zn        38.1315944514       26.0510685951       22.9446861842
 Zn        41.1497113423       28.9989390488       22.7739283982
 Zn        41.4145854321       35.3496663457       25.2251005411
 Zn        19.9279908086       19.9266309204       29.0848755850
 Zn        13.9672120970       17.4815056770       38.3088565672
 Zn        16.9725572014       20.0038294859       38.2283336825
 Zn        20.0109045663       23.1115091717       38.1310047397
 Zn        22.9579153147       26.1213248279       38.0594878677
 Zn        25.9610149323       29.0084272234       38.0670707834
 Zn        23.1132598662        7.8510567570       25.8931901157
 Zn        26.0526000554       10.9411413076       26.0462954092
 Zn        29.0749945814       13.9490688050       26.0403921020
 Zn        32.1710473639       16.9023218530       26.0394060563
 Zn        35.1172204436       19.9329635755       25.9770599181
 Zn        38.1338834139       22.9556369768       26.0442809465
 Zn        41.1550784758       25.9642811808       25.9015961386
 Zn        29.1516811852       13.8074801245       13.8035910868
 Zn        28.9985590469       32.1129042062       38.2203644443
 Zn        26.0527641523       32.1594297528       16.8367508943
 Zn        22.9571298398       22.9613539765       29.0692260540
 Zn        26.0446048327       26.0537290806       29.0707761707
 Zn        29.0789351739       29.1429775383       29.0697827872
 Zn        32.1744324467       32.1819431225       29.0686155127
 Zn        35.1977987711       35.2871738887       28.9210132291
 Zn        26.2153481884        7.9207955285       28.9984552294
 Zn        29.1627444867       11.0367427944       29.1600189182
 Zn        32.0118822151       13.8794362884       29.1592721534
 Zn        35.1961453487       16.9967862714       29.1445014733
 Zn        37.9781321374       19.8393891563       29.0848278744
 Zn        41.1470312898       22.7937610633       28.9903202365
 Zn         7.7504023249       21.9663361964       14.6997091581
 Zn        36.9910609578       38.9554027524       29.4113942645
 Zn        26.0507301437       35.1063558486       19.9230940684
 Zn        20.5745600701       20.5862434867       40.8383574844
 Zn        23.1915100203       23.1934629629       41.0777173503
 Zn        25.9580974243       25.9780104216       41.0810745113
 Zn        29.2368214782        7.9941920938       32.2555562285
 Zn        35.0303594996       14.0336922674       32.1701745446
 Zn        41.0128177337       19.8451804466       32.1824880720
 Zn        10.8604890561       25.8121257769       13.7104072047
 Zn        28.7406265095       28.7509595111       41.1580868757
 Zn        31.2683769257       31.2826528515       41.0879802371
 Zn        29.2242512050       35.1259280207       16.9937587993
 Zn        25.9621261105       13.8068198003       35.2019266254
 Zn        29.4832206887       38.9614950702       36.9084558492
 Zn         7.9938595004       16.7439760601       19.8454096641
 Zn        35.0314411342       19.6901682359       37.8164028686
 Zn        13.7341749827       28.9893797339       13.5589878119
 Zn        32.2576145894       16.8288148111       13.7907433430
 Zn        16.9082161074       32.0891127600       13.7187265451
 Zn        29.1540082965       16.9987004611       35.1876873126
 Zn        41.2348383572       23.3594241054       17.1319698745
 Zn        25.9051144048       13.7900511802       10.9255729462
 Zn        14.0364663427       29.3965489076       37.8099007830
 Zn        28.7495227063       20.2588933293        7.8356392789
 Zn        31.7592493484       23.5107363175        7.9907897115
 Zn        34.3015732183       26.9580326178        7.6703507373
 Zn        13.5577025183       11.6036936640       32.4351947686
 Zn        41.4145042144       25.3075540748       35.2777422586
 Zn        16.8972453687       13.8036292401       32.1862448774
 Zn        19.9240651785       16.8360223049       32.1818095735
 Zn        23.0135134885       19.9289706918       32.0973807129
 Zn        26.0427967052       23.0184398528       32.0789587263
 Zn        29.0819380614       26.0660183974       32.0906698598
 Zn        32.1717132498       29.1505856528       32.1005405514
 Zn        35.2042608118       32.1943631262       32.1010442459
 Zn        23.7726699221        7.5921841190       35.3541681342
 Zn        29.3878991489       37.8917174847       13.9683494980
 Zn        32.0107772220       19.8447546044       35.1222998341
 Zn        11.1789819910       19.6046878923       14.0438516869
 Zn        14.5432719353       20.6589928390       40.8338709566
 Zn        29.3924973013       14.0440955736       37.8157684323
 Zn        13.8630510734       13.8033284061       23.0409079391
 Zn        19.9986296085       13.8070293822       35.3659653583
 Zn        34.3008982284        7.7464029848       26.9490816328
 Zn        23.0207040546       16.9006720076       35.1923332668
 Zn        22.0538986491       14.6247342435        7.7475074628
 Zn        16.9072363971       16.9096502483       22.9548177105
 Zn        13.8009329317       23.0283087147       13.7959175830
 Zn        26.0547091799       19.9432304746       35.0479152644
 Zn        14.5573554407        8.1562220484       28.3456200725
 Zn        16.9811664364       10.7780690587       29.0033248535
 Zn        29.0673659240       22.9543836542       35.0473476210
 Zn        40.9949675165       14.9522532129       27.0302461440
 Zn        17.1480950764       23.4282020280       41.1641666929
 Zn        19.9969603000       26.2157374007       41.0819121183
 Zn        32.1009849667       26.0569795771       35.1207388814
 Zn        35.2011720395       29.0872950708       35.1904812097
 Zn        37.4763820549       32.4297869228       35.3657483623
 Zn        20.0009307230       19.9320166285       23.0276022236
 Zn        16.8276415579       35.0281098429       34.9539043719
 Zn        19.6104885781       37.8879630165       34.9478036120
 Zn        21.9719877292       40.9990676677       33.9695949932
 Zn        35.1963805552       23.1062895787       35.1275669512
 Zn        16.8371160785       25.9791206078       13.7909191511
 Zn        19.9942619629       29.0042290458       13.8022920036
 Zn        23.0200873372       22.9665173715       22.9560040274
 Zn        38.1362704127       25.8937285932       35.2043546111
 Zn        14.9541210694       21.8933369709        8.0048048627
 Zn        17.1424229180       25.5657907708        7.7619059831
 Zn        20.5744402630       28.4179797993        8.0911780115
 Zn        23.3652619523       31.8572784298        7.7621324487
 Zn        27.0328567804       34.0495631692        8.0045638501
 Zn        19.9952798181       13.8715698380       29.0766161522
 Zn        22.9533747116       16.9062279149       29.0818708355
 Zn        26.0463493001       19.9382621374       29.0707863040
 Zn        29.0752557860       23.0169601644       29.0672505823
 Zn        40.8435008327       28.3464619371       34.4491506260
 Zn        14.0442136605       19.6016005939       11.1833254650
 Zn        16.9105955533       22.8619231016       10.7825899229
 Zn        20.0043275841       25.8907518633       10.8570072319
 Zn        23.1050124802       28.9938277988       10.8577149764
 Zn        26.1323505136       32.0941174449       10.7833719241
 Zn        29.3891609051       34.9591973357       11.1743839264
 Zn        26.0450406468       26.0476656192       22.9536063316
 Zn        32.0991323391       26.0563552386       29.0673786141
 Zn        29.0767158481       29.0693671293       22.9543306806
 Zn        31.7661026357        7.9974519313       23.4502876409
 Zn        11.0342582393       19.8320933919       19.8481851489
 Zn        14.4689972249       28.2614234947        8.1566461589
 Zn        14.0411755869       16.7593884971       13.9778769601
 Zn        16.9972353793       19.8463417739       13.8085274411
 Zn        19.9294588752       22.9508826641       13.8829953020
 Zn        23.0255347997       25.9739287207       13.8810516672
 Zn        26.0568435583       29.0699216410       13.8810296423
 Zn        29.1471973619       32.0051172419       13.8057931119
 Zn        32.1812224992       34.9664039657       13.9654534064
 Zn        32.1651718189       32.1612213227       22.9443079102
 Zn        20.7310337185       34.5369423414        8.1597649964
 Zn        14.0413315076       13.9692609718       16.8434910625
 Zn        16.9834905281       16.9771934980       16.9156780027
 Zn        20.0035915064       19.9402827553       16.9088053241