    1259
 i =      138, E =    -44936.3826325136
 Zn        31.3614396075       20.4085431966       39.1884069003
 Zn        34.1300394787       20.4176454560       14.9579411901
 Zn        31.5168261889       39.1980820224       20.4133827491
 Zn         9.9754616941       28.1035856568       15.4285042404
 Zn        15.3513138302       33.6485780404       15.2031649808
 Zn        20.8317158704       39.0304139722       15.4302634656
 Zn        39.0439714576       26.3874191572       15.6908522587
 Zn         9.7283337501       25.5567332757       17.9561781225
 Zn        12.3360077596       28.5653179839       17.6396408778
 Zn        15.0238461362       31.2747801353       17.5634806454
 Zn        17.7253013097       33.9757928097       17.5657876607
 Zn        20.4272088464       36.6640413450       17.6429614377
 Zn        23.4316819886       39.2706676356       17.9640901077
 Zn        25.4025384039        9.4613231062       14.6834571473
 Zn        39.1923426313       15.1912546756       20.6648826328
 Zn        23.1150301048       31.2733642471       20.4071384103
 Zn         9.7952808714       23.0313642985       20.4891204499
 Zn        12.4089634543       25.8069940011       20.4211687783
 Zn        15.0418984674       28.5725019903       20.3494236494
 Zn        17.7319032686       31.2711076863       20.3397603640
 Zn        20.4240684501       33.9625310979       20.3473901934
 Zn        23.1845016489       36.5997048308       20.4167457371
 Zn        25.9696422338       39.2646343380       20.4802692129
 Zn        34.1317473713       12.4964108843       23.1956749368
 Zn         9.8041442791       31.4430042244       28.5099597682
 Zn        33.4043548486       22.3920744012       39.4418581007
 Zn        31.5130223050       14.7864907455       12.9072610770
 Zn        12.6688518337       15.1202955653       20.3345347785
 Zn        12.6651611896       33.8817693626       28.5883292874
 Zn         9.7992796428       20.4242825657       23.0452116067
 Zn        12.4816375047       23.1126797646       23.1146966240
 Zn        15.1022612602       25.8755872680       23.1096474851
 Zn        17.7314209093       28.5761903748       23.0501862124
 Zn        20.4214689912       31.2756892654       23.0984951189
 Zn        23.1186762803       33.9576333389       23.1066391720
 Zn        25.8794134849       36.5757766061       23.1036018591
 Zn        28.5922289268       39.2100800036       23.0313079373
 Zn        28.2507755007       15.4219639728       10.0558288226
 Zn        15.1908761796       36.3530747368       28.5941572861
 Zn         9.8075472534       17.9435398055       25.6447393860
 Zn        12.4170649235       20.4316955722       25.8080529124
 Zn        15.0948700968       23.1183890265       25.8139168768
 Zn        17.7372435544       25.8172054232       25.8019481607
 Zn        20.4297406500       28.5127935025       25.7407994602
 Zn        23.1245911613       31.2648117615       25.7950329796
 Zn        25.8764037084       33.9072679835       25.8064242065
 Zn        28.5747490249       36.5778340903       25.7366422886
 Zn        31.1776706145       39.3574297686       25.6528135109
 Zn        37.3027279799       20.1775982286       13.1474850274
 Zn        17.6477256637       39.1993544480       28.5852032970
 Zn        10.1425314177       15.3457340926       28.2588021491
 Zn        12.4156368892       17.7264780236       28.5802265971
 Zn        15.0355975832       20.4234735499       28.5700443167
 Zn        17.7342336459       23.1171085194       28.5116245535
 Zn        20.4906739380       25.8118591951       28.4924441073
 Zn        23.1899813595       28.5738085612       28.4899872956
 Zn        25.8861833099       31.2689774851       28.5024515226
 Zn        28.5780898900       33.9628609664       28.5044643879
 Zn        31.2788116521       36.6649361285       28.5647232110
 Zn        33.4959745286       39.1011882107       28.1792302059
 Zn        15.1083308097       17.8704891126       20.4273970126
 Zn        17.8072287889       20.4950908352       20.4994210720
 Zn        12.8247775032       14.8752318085       31.4271266043
 Zn        15.0220359723       17.7141609831       31.3448343846
 Zn        17.7270673176       20.4221719638       31.2663159549
 Zn        20.4367725426       23.1299555343       31.1984852941
 Zn        23.1899808392       25.8792613597       31.1950207950
 Zn        25.8864157459       28.5816816980       31.1969145330
 Zn        28.5873313337       31.2868681702       31.2043960677
 Zn        31.2724028814       34.0556422378       31.2664800303
 Zn        33.8213254827       36.7483151266       30.9531428206
 Zn        14.9536707525       25.7143231294       12.3351012645
 Zn        20.4961577687       23.1804491778       20.4812323200
 Zn        15.3478071506       15.3546434108       33.7288941069
 Zn        17.7324545122       17.7953199054       33.9868418791
 Zn        20.4324285578       20.4307312143       33.8941865057
 Zn        23.1812085976       23.1877698983       33.8738510297
 Zn        25.8814875276       25.8893861177       33.8860347393
 Zn        28.5771554304       28.5879125077       33.8988526646
 Zn        31.2867730869       31.3565664498       33.9681144182
 Zn        33.6548744983       33.7968560705       33.6412786901
 Zn        17.7339779350       28.5041695426       12.2753072707
 Zn        18.2140006095        9.8121595310       30.7989234939
 Zn        31.3432578547       20.4170779635       12.3354084514
 Zn        23.1826229533       25.8203151308       20.4226025536
 Zn        18.1280473162       15.4373453511       36.5714858684
 Zn        20.4909986823       17.7269839257       36.6629656235
 Zn        23.2013811243       20.4932801017       36.5078109159
 Zn        25.8779745007       23.1847541973       36.5138809304
 Zn        28.5139741183       25.8789287979       36.5782116752
 Zn        31.2662680465       28.5879238919       36.5800541064
 Zn        34.2194144373       31.5175279361       36.0141208562
 Zn        20.4901547227       31.2713569861       12.2663893537
 Zn         9.8028500570       20.3418844075       17.6340598803
 Zn         9.5554147054       15.5875293289       22.4615697631
 Zn        12.4235966212       17.7264803529       23.0343487518
 Zn        23.2727319566       34.0557053999       12.3257493335
 Zn        15.0976108476       20.4213884947       23.1182468686
 Zn        25.8108630642       28.5118810132       20.4238180965
 Zn        28.4962461154       31.1995097165       20.4935239143
 Zn        20.6625003658       15.1939033647       39.1791127079
 Zn        23.2648075552       17.8004313958       39.2911016643
 Zn        25.8889877649       20.4214426787       39.1971938450
 Zn        28.5030298961       23.0473337329       39.2050202199
 Zn        31.0306364186       25.6434632799       39.1956169390
 Zn        33.5777120735       28.2574295994       38.8673104314
 Zn        33.5724088540       10.0470912610       20.8226248503
 Zn        12.4089978245       23.0284132007       17.7339044593
 Zn        15.0356877933       25.8831705599       17.7126168000
 Zn        17.7307622113       28.5756372286       17.6527034828
 Zn        34.3822667366        9.4749282072       23.6790087098
 Zn        28.6652439123       36.5131793996       20.3452513356
 Zn        20.4215165799       12.3406867992       31.2851988284
 Zn        20.3417603176       17.6391892265        9.8010519097
 Zn        23.0368772690       20.4901137983        9.7313347458
 Zn        25.8091180724       23.1903576846        9.7887357307
 Zn        28.5040330041       25.9723360563        9.7200402801
 Zn        31.3560182137       28.6612971979        9.7281898429
 Zn        31.3347846543       12.3560956004       20.4222026786
 Zn        17.7414326886       23.1217051977       23.1182937149
 Zn        31.1267086907       33.8923805005       20.4250251747
 Zn        20.4314045243       25.8201405919       23.1111299391
 Zn        23.1126081637       15.0325258417       31.2741164826
 Zn        20.3298920252       15.1893709311       12.6612405532
 Zn        23.0339010018       17.7971838762       12.4043907352
 Zn        25.8711082757       20.4322506186       12.3997176664
 Zn        28.5759707836       23.1824620212       12.3450844247
 Zn        31.2058634930       25.9711503902       12.3422282808
 Zn        33.7964935033       28.6689301718       12.5860821901
 Zn        34.1268511915       14.9595850502       20.4265298233
 Zn        23.1235371647       28.5705744371       23.1066517347
 Zn        25.8071204864       31.2643636728       23.1101262253
 Zn        25.8147815910       17.8066987752       31.1995262528
 Zn        20.3413276224       12.6583013495       15.1897548796
 Zn        23.2694511663       15.0426669088       15.0392480342
 Zn        25.8861299882       17.7252826000       15.0322455183
 Zn        28.5883739826       20.4190122373       15.0270523911
 Zn        31.2842925271       23.1121491570       15.0243118237
 Zn        33.8955035241       25.7351736664       15.0294860080
 Zn        36.2517661492       28.6608171167       15.1135532852
 Zn        28.5182708439       33.9001995357       23.1079153499
 Zn        31.2679103558       36.5781386846       23.1067884574
 Zn        33.2460310969       39.1140886690       22.5434734570
 Zn        30.8631637187       18.2006602600        9.8135178962
 Zn        14.6948087576        9.3956841047       25.3999165993
 Zn        20.4243851450        9.8000526774       17.6274718567
 Zn        23.0956967869       12.4168909913       17.7960521533
 Zn        25.8858118593       15.0371388018       17.7265186624
 Zn        28.5893857272       17.7237283940       17.7211982442
 Zn        31.2905983969       20.4172315883       17.7164037624
 Zn        33.9667069704       23.1100023628       17.7193953622
 Zn        36.5179372869       25.8865714824       17.7383874675
 Zn        39.2008991403       28.5073840603       17.4714414925
 Zn        28.5040418080       20.5614376564       31.1860633938
 Zn        33.5651160844       20.8200235282        9.9727695488
 Zn        34.3105562257       23.6932806717        9.4693289703
 Zn        34.3097754732       25.3943220982       39.5282529643
 Zn        28.5936075264       17.7265418568       12.3651844565
 Zn         9.3994522606       34.3078527776       23.5146658839
 Zn        23.1079802735        9.7922818952       20.4908896790
 Zn        25.8802988755       12.4168071171       20.4858143360
 Zn        28.5879983880       15.0382436458       20.4200596091
 Zn        31.2915878570       17.7189436598       20.4175532168
 Zn        33.9638227734       20.4296371631       20.4263051895
 Zn        36.5829854389       23.2000578090       20.4210299371
 Zn        39.2105149592       25.8834907818       20.3428944648
 Zn        14.6852257711       39.3645073197       23.6785847445
 Zn        20.4206237026       31.2803923617       17.6472905951
 Zn        33.8866535879       36.2581990202       20.3321979989
 Zn        23.1096289208       33.9725057170       17.6522441657
 Zn        25.9727388678       36.5977428086       17.7399092842
 Zn        25.8276935570        9.7967354170       23.2053743532
 Zn        28.5764621083       12.4085937165       23.1908312013
 Zn        31.2860641351       15.0337866204       23.1127061801
 Zn        33.9685834214       17.7261201687       23.1110868088
 Zn        36.5781135242       20.4869624348       23.1947907974
 Zn        39.2106729882       23.2024525963       23.1886409551
 Zn        30.8674062857        9.8847345446       18.1909519286
 Zn        28.6631758629       39.1987371443       17.6415555029
 Zn         9.5576581987       23.7497829434       34.3087655132
 Zn        20.3389755583       31.3626328693       39.1865176898
 Zn        31.2673495832       23.1994157133       31.1934822470
 Zn        34.1975609538       23.1161174546       12.5005274821
 Zn        28.5715566777        9.7961614822       25.9617804161
 Zn        31.2710067026       12.4164662305       25.9653915084
 Zn        33.9596367295       15.0984219094       25.7304242548
 Zn        36.5866427268       17.8055782132       25.8831909690
 Zn        39.2178489675       20.4134967782       25.8952640633
 Zn        31.4325204647        9.8024930881       28.5984108910
 Zn        33.8127072007       12.6654561974       28.6695877990
 Zn        36.2595300106       15.1859019946       28.6656008596
 Zn        39.2011435651       17.4921669535       28.5817616080
 Zn        36.5768126101       15.3739460900       18.1953185487
 Zn        22.3141340577       33.4034583430       39.4411584506
 Zn        33.9688957222       25.8832122513       31.2042587914
 Zn        15.0090106690       12.4121503851       25.8016960755
 Zn        17.7465322182       15.0334609399       25.8807269157
 Zn        20.4326259421       17.7299687242       25.8849902922
 Zn        36.5863937171       28.5875394019       31.2673315555
 Zn        25.2515421893       34.3811548427       39.4414935155
 Zn        36.6666618992       14.9450041502       23.2760007453
 Zn        39.3624362315       17.7962528797       23.2618516873
 Zn        39.1176337419       30.8662073201       30.8064568897
 Zn         9.5504567038       14.6148595629       25.3944371769
 Zn        12.5562399860       14.8631582376       25.8779855841
 Zn        15.0462421702       17.7334911758       25.8672923753
 Zn        17.7345047460       20.4184706446       25.8767749294
 Zn        20.4343699623       23.1207423971       25.8163949470
 Zn        23.1794565360       25.8790416576       25.8061885500
 Zn        25.8719320669       28.5814283934       25.8059701571
 Zn        28.5823086910       31.2707576601       25.8154092532
 Zn        31.2828099412       33.9748726605       25.8788767904
 Zn        34.1226968005       36.7381041925       25.8114059902
 Zn        26.4600620085       15.7729004312       39.0382259309
 Zn        13.2321596038       20.0852851250       37.2261710529
 Zn         9.8088501121       30.7260547848       18.1302362590
 Zn        12.8982771254       34.1389439218       17.4102460384
 Zn        14.8629294707       36.1078583594       17.4841099610
 Zn        18.1970549833       39.1203658439       18.1276027929
 Zn        23.1762741166       20.4253616193       25.8778590132
 Zn        14.9407767661       23.1968591253       36.6609540209
 Zn         9.7190809071       28.3457614328       20.5667187650
 Zn        12.4048520515       31.2053524893       20.3384179375
 Zn        15.0282673416       33.8936985223       20.2705793407
 Zn        17.7243156823       36.5941678914       20.3433316160
 Zn        20.5816458198       39.2739269650       20.5671271660
 Zn         9.5553455005       25.2289333643       14.6169974606
 Zn         9.7982737174       25.7980640478       23.1888982629
 Zn        12.4202719573       28.5138695215       23.1169264645
 Zn        15.0323712327       31.2597385109       23.0443118389
 Zn        17.7294417503       33.9611427268       23.0444612991
 Zn        20.4248794197       36.5906142636       23.1099780360
 Zn        23.1911668739       39.2035745308       23.1748382865
 Zn        13.2237764237       28.7482813787       11.6753108010
 Zn        28.4300441367        9.7231298602       20.5868758619
 Zn        17.8004669991       25.8863500969       36.4997552792
 Zn         9.8021378889       23.1892515784       25.7988271968
 Zn        12.4826564275       25.8790164275       25.8144020044
 Zn        15.0953222986       28.5744811225       25.7974973436
 Zn        17.7398591096       31.2667298869       25.7351276817
 Zn        20.4243785129       33.9602246061       25.8000273109
 Zn        23.1255507404       36.5260744680       25.8074394660
 Zn        25.8042152124       39.2075711951       25.7328899748
 Zn        15.4228686151       30.7864316825       12.4080301471
 Zn        25.8857516769       23.1833965688       25.8099990342
 Zn        36.6744723407       17.7225586327       20.4910169635
 Zn         9.4820762732       26.6300672666       33.3207375360
 Zn        12.6640638905       28.6829986859       33.7325682397
 Zn        15.2569475992       31.2609205972       33.6539847775
 Zn         9.7258485794       20.5876901227       28.4163588952
 Zn        12.4100628331       23.1880327718       28.5032001526
 Zn        15.0955626452       25.8729461890       28.5026963418
 Zn        17.8056373982       28.5020911099       28.4266040226
 Zn        20.4971303996       31.1972651032       28.4189595028
 Zn        23.1806715091       33.8957339063       28.4897016396
 Zn        25.8073023963       36.5794267007       28.4895169314
 Zn        28.2556213895       38.9600341648       28.1751778755
 Zn        18.1486075076       33.5708777963       12.3461611615
 Zn        20.3430671129       28.6545359129       36.4864278105
 Zn        17.5477818917       20.4228798254        9.7995169899
 Zn        20.4188270774       23.1035699675        9.7888893563
 Zn        23.1994263861       25.8004475960        9.7861381781
 Zn        25.9005441215       28.5907098079        9.7843557756
 Zn        28.5804754918       31.5071231659        9.7972529903
 Zn        28.5776380283       25.8816111985       25.8098771207
 Zn        38.9599916334       20.7453421632       20.7425530435
 Zn        25.8104931247       12.4317757972       14.9430875418
 Zn        23.0319063341       31.2594261581       36.5775341705
 Zn        20.3469384410       20.3564140161       12.4883737944
 Zn        23.1783100072       23.1128810884       12.4203567563
 Zn        25.8884761802       25.8779872813       12.4209224314
 Zn        28.6508435725       28.6616112087       12.4799587924
 Zn        31.2795542643       28.5859332104       25.8675299199
 Zn        17.5383691985       28.5798144010       39.1263891248
 Zn         9.8809755055       18.1911389578       30.7995035047
 Zn        12.3414336095       20.4257353212       31.2762312396
 Zn        15.0353641892       23.1243620511       31.2042982765
 Zn        17.7906633218       25.8113982931       31.1891142314
 Zn        20.5059981294       28.5093718469       31.1222972418
 Zn        23.1920951772       31.2557105762       31.1917610425
 Zn        25.8897039086       33.9703370037       31.2036514134
 Zn        28.5796752034       36.6638997419       31.2067100909
 Zn        28.5787155944       17.5561821268       39.1260932093
 Zn        17.8042022154       15.2014099553       15.2651797673
 Zn        20.4622442411       17.8789452157       15.1060967608
 Zn        23.1851266848       20.4345136349       15.0376493239
 Zn        25.8873537992       23.1179065457       15.0366759364
 Zn        28.5799780765       25.8148778329       15.0383826378
 Zn        31.1173248724       28.5183383707       15.1026044947
 Zn        33.7280534284       31.2038126014       15.1955618450
 Zn        33.9780606353       31.2765234470       25.8690601519
 Zn        20.1785648405       35.7782988595       11.6082683091
 Zn        37.3211835584       13.2190376644       20.2503744272
 Zn        20.8202124692       10.0479393612       33.5638366623
 Zn        15.0424269949       15.0275245211       28.5963627566
 Zn        23.1217524878       12.5697004741       34.1335091724
 Zn        25.8809087173       34.1351499627       36.4256462747
 Zn        20.4899009094       15.1052095198       17.8810895589
 Zn        23.1975402868       17.7908884737       17.7352222410
 Zn        25.8889343321       20.4222674138       17.7257901798
 Zn        28.5839236263       23.1157279739       17.7264871900
 Zn        31.2564859420       25.8100431911       17.7877742151
 Zn        33.8988925465       28.5764639280       17.8809391032
 Zn        36.4179365422       34.2863554943       26.0406569039
 Zn        15.0327293297       20.4317803735       34.0464471947
 Zn        17.7278162200       23.1233346740       33.8983534781
 Zn        20.4963853347       25.8811304830       33.8264560320
 Zn        23.1839719985       28.5779341767       33.8899380678
 Zn        25.8815052951       31.2757679062       33.8979518272
 Zn        28.5711828654       34.0570867225       33.8936658277
 Zn        17.6297377817        9.8002367068       20.4182268020
 Zn        20.4128546169       12.4977889919       20.3477864987
 Zn        23.1882141170       15.1016063175       20.4302036900
 Zn        25.8894057269       17.7325061814       20.4196249583
 Zn        28.5859737062       20.4201852045       20.4181400639
 Zn        31.2747435907       23.1192344965       20.4255426360
 Zn        33.9019405946       25.8803956731       20.4876070919
 Zn        36.5778140701       28.6483558634       20.3309773441
 Zn        39.2743043501       31.3396476322       20.3219616219
 Zn        30.9448669683       36.7460421955       33.8206329426
 Zn        23.1261818604       28.5704861395       17.7296707266
 Zn        17.7248289467       17.7222739350       28.5845105274
 Zn        20.4994498827        9.7963070980       23.0447851315
 Zn        23.1855265991       12.4848502303       23.1254540273
 Zn        25.8855515948       15.1019476302       23.1276630419
 Zn        28.5860258048       17.7347859260       23.1136251773
 Zn        31.2746450736       20.4290895729       23.1123246512
 Zn        33.9583306366       23.1847781024       23.1175995550
 Zn        36.5883847008       25.8839652313       23.1109422199
 Zn        39.2829007176       28.4982509896       23.0174697939
 Zn        39.4406447414       34.3073520336       25.1695969091
 Zn        20.4286977005       20.4238983843       28.5683890498
 Zn        15.1114837218       18.0600450980       36.7361177126
 Zn        17.7333440660       20.4229338385       36.5951412238
 Zn        20.4858114509       23.2040868079       36.5050043725
 Zn        23.1183345744       25.8910127904       36.5097079238
 Zn        25.8119093530       28.5792185025       36.5831334196
 Zn        23.2050274043        9.8008998279       25.8050159670
 Zn        25.8903392263       12.4818574823       25.8818742939
 Zn        28.5777760950       15.0986165425       25.8224558935
 Zn        31.2591640954       17.7964249382       25.8050297878
 Zn        33.8973734623       20.4956262802       25.8116848584
 Zn        36.5803882592       23.1318599642       25.8713874390
 Zn        39.2132303443       25.8088898555       25.8041007559
 Zn        28.6306695565       15.0339498995       15.0306076369
 Zn        28.5774776800       31.3315243038       36.5903573629
 Zn        25.8141345599       31.2585561909       17.7402392530
 Zn        23.1779151680       23.1869639669       28.5031593503
 Zn        25.8836087207       25.8860640500       28.5007682136
 Zn        28.5798981388       28.5828213413       28.5066590213
 Zn        31.2756178828       31.2867215912       28.5760133765
 Zn        33.9508588808       34.0587049756       28.5752944228
 Zn        25.9690962327        9.7944361650       28.5120535213
 Zn        28.6591672280       12.4959696506       28.6558396962
 Zn        31.1181036384       15.1126243744       28.5227662817
 Zn        33.8929535753       17.8958898117       28.5230907729
 Zn        36.5088993321       20.3380289385       28.5930032565
 Zn        39.2101767048       23.0361290307       28.5087055068
 Zn         9.4803601947       22.3129306464       15.6014542852
 Zn        35.7615451601       37.2427670728       28.9871148598
 Zn        25.8172749657       33.9589735861       20.4148687358
 Zn        20.7455475281       20.7517155572       38.9446354379
 Zn        23.1956759532       23.2043517713       39.1401407409
 Zn        25.8008481175       25.8142260379       39.1992992833
 Zn        28.6524320194        9.8014060011       31.4296087216
 Zn        33.7311414082       15.2671069709       31.1973177450
 Zn        39.1959868876       20.3391619750       31.3562446823
 Zn        12.5716140253       25.8819617594       14.7924297770
 Zn        28.4099044661       28.4324076739       39.2729558585
 Zn        30.7921853776       30.8648087393       39.1137991549
 Zn        28.5777228722       33.8903880643       17.8822502416
 Zn        25.7375648670       15.1013861443       33.8911397455
 Zn        28.9209068285       37.2222757352       35.7577613827
 Zn         9.8038480573       17.5548976746       20.4148784137
 Zn        33.8033596016       20.3374972653       36.2746291040
 Zn        15.0196610356       28.5692248135       14.8622970759
 Zn        31.3551692871       17.7167679591       15.0166076550
 Zn        17.8095314614       31.1985221884       14.9513704516
 Zn        28.5771677046       17.9525571583       33.8775182103
 Zn        39.3563409601       23.1989290862       17.7290990913
 Zn        25.8912405688       14.8720713620       12.4967538357
 Zn        15.1897935833       28.6724074909       36.1773672190
 Zn        28.4267510857       20.5849188254        9.7135008269
 Zn        31.0293043577       23.4244863833        9.7188977389
 Zn        33.3266599808       26.6218196442        9.4050811070
 Zn        14.7880929585       12.9131165446       31.5126905962
 Zn        39.5201036173       25.3345558306       34.3047604964
 Zn        17.7155576870       15.0214277313       31.3553175860
 Zn        20.4152928568       17.7207765872       31.2824634182
 Zn        23.1247051319       20.4903763716       31.2034575294
 Zn        25.8745584110       23.1955419050       31.1976491294
 Zn        28.5785699798       25.8882199015       31.1969818583
 Zn        31.2790580208       28.5903184093       31.2619313614
 Zn        33.9729188326       31.3560676867       31.2783661821
 Zn        23.6893677626        9.5551851738       34.3780978450
 Zn        28.6786724560       36.3405681532       15.1929304386
 Zn        31.1167040741       20.4929570615       33.8892206596
 Zn        12.6667398575       20.3186964778       15.1928951310
 Zn        15.5162614102       20.8283232558       39.0337922695
 Zn        28.6652403003       15.1947751174       36.1909339478
 Zn        15.0998756524       15.0370368184       23.2609592656
 Zn        20.4151433050       15.0210253088       34.1250501267
 Zn        33.4143303304        9.4878314348       26.6099648536
 Zn        23.1135865650       17.7354973178       33.9000177816
 Zn        22.3838335776       15.6698586458        9.4854752707
 Zn        17.7997960344       17.7320402528       23.1864761490
 Zn        15.1059578141       23.2602090931       15.0990583051
 Zn        25.8698784809       20.5019840638       33.8774145882
 Zn        15.4227932203       10.0645313615       28.2537293477
 Zn        17.7402068181       12.4035592511       28.5835937563
 Zn        28.5726517965       23.1974926176       33.8928776625
 Zn        39.1111039591       15.7647934363       26.4488399360
 Zn        17.8842890356       23.3383131186       39.2774356776
 Zn        20.4239833815       25.9549141306       39.1932175701
 Zn        31.2681347891       25.8846586279       33.9034258938
 Zn        33.9625471195       28.5910133927       33.9588665793
 Zn        36.1818858296       31.4288373234       34.0551771167
 Zn        20.4909157024       20.4281092609       23.1899725801
 Zn        17.8043849331       33.7412469582       33.6586597713
 Zn        20.3371259803       36.2647541586       33.7393317691
 Zn        22.6152396935       39.1132740676       33.1638591534
 Zn        33.9565917118       23.2725479885       33.8990206980
 Zn        17.7375450410       25.8781237128       15.0310040995
 Zn        20.4342623243       28.5637969398       15.0248070797
 Zn        23.1868373708       23.1208064733       23.1747128373
 Zn        36.5071840365       25.8751288127       34.1167501079
 Zn        15.7706207913       22.5426873801        9.8881492374
 Zn        17.7994855456       25.7279658400        9.6360396901
 Zn        20.7500473401       28.2503519540       10.0326682039
 Zn        23.2689607414       31.2049214767        9.6352616231
 Zn        26.4500918450       33.2362464541        9.8892923293
 Zn        20.4268944521       15.0342375410       28.5782872081
 Zn        23.1211568661       17.7330532757       28.5747490419
 Zn        25.8205284416       20.4930839097       28.5052571281
 Zn        28.5739046603       23.1983545342       28.4992448473
 Zn        38.8674391120       28.2609232288       33.6450658041
 Zn        15.1918783621       20.3341313046       12.7418714993
 Zn        17.8053064427       23.1093640276       12.4213475260
 Zn        20.4922321940       25.7918534171       12.4281652823
 Zn        23.2044634320       28.5120955920       12.4290074777
 Zn        25.8908462309       31.1968459446       12.4189040399
 Zn        28.6659455231       33.8134066890       12.7411819262
 Zn        25.8746169291       25.8286177771       23.1138408197
 Zn        31.2776966415       25.8879490087       28.5079157909
 Zn        28.5184690960       28.5745807276       23.1731471858
 Zn        31.0471463226        9.7976474964       23.4190542883
 Zn        12.4967909520       20.3426265981       20.3446429380
 Zn        15.1853845421       28.2693851667        9.8048711899
 Zn        15.2670374700       17.7851730055       15.2704843520
 Zn        17.8906707477       20.4242491798       15.1110665497
 Zn        20.4952193345       23.1197767492       15.1004690489
 Zn        23.1880201497       25.8166341657       15.0959789769
 Zn        25.8804791284       28.5087765649       15.1025097183
 Zn        28.5782244112       31.1149445285       15.1106313476
 Zn        31.2127394719       33.7884464135       15.2728581777
 Zn        31.2726744108       31.2646805083       23.1789777445
 Zn        20.6676448813       33.8029166264        9.7945285257
 Zn        15.2642126135       15.1956301150       17.7960513204
 Zn        17.8815489685       17.8125251849       17.8701816945
 Zn        20.5087120893       20.4988959799       17.8053708395