    1259
 i =      109, E =    -31869.0261830037
 Hg        32.6572335275       20.2253719352       41.2280639887
 Hg        35.6171911219       20.0587703648       14.4414299774
 Hg        32.4877250206       41.3499808282       20.5072795815
 Hg        10.1754023655       29.5619991704       14.3543741421
 Hg        14.4311447707       35.4480113312       15.3818593494
 Hg        20.2121890583       39.5798876874       14.3358626849
 Hg        40.6883154917       26.9243872272       15.2699881495
 Hg         8.6414648052       26.0943967694       17.5768143371
 Hg        11.5597589867       29.2914586178       17.6820165146
 Hg        14.4290240798       32.3631443469       17.3231363799
 Hg        17.3688562173       35.3560331443       17.3846657264
 Hg        20.4743197334       38.2191304470       17.6655821352
 Hg        23.6583469546       41.0841028481       17.5467530048
 Hg        26.2023101355        8.0470326739       13.3692443554
 Hg        41.0205974690       14.6993911157       20.8125466571
 Hg        23.4675643052       32.2750379044       20.4685406133
 Hg         8.5935959245       23.1559767049       20.4138175850
 Hg        11.5049583467       26.2517465206       20.5733318263
 Hg        14.5320958749       29.2985321937       20.5473874607
 Hg        17.4498050111       32.3202987255       20.4354320258
 Hg        20.5035191793       35.2496501873       20.5592656775
 Hg        23.5094221560       38.2970548707       20.5474475655
 Hg        26.6203740683       41.2512702339       20.2986548059
 Hg        35.5783623209       11.9468672611       23.5631121446
 Hg         8.7444774386       32.4156512733       29.6411580986
 Hg        34.8431919877       22.6688220031       41.2352020482
 Hg        32.5607836237       14.2916159168       11.6625588570
 Hg        11.6956618908       14.3092221013       20.2301233686
 Hg        11.6849385790       35.2842181020       29.8467834484
 Hg         8.5813171413       20.1660399295       23.4038833747
 Hg        11.4839880478       23.2448357717       23.5218732466
 Hg        14.4740715090       26.2968712961       23.5275343656
 Hg        17.5043606980       29.3117547969       23.5192235229
 Hg        20.4582125839       32.2684105256       23.5131836534
 Hg        23.4816500627       35.2797256237       23.5073574690
 Hg        26.4562307569       38.2819937224       23.4375758560
 Hg        29.4616811589       41.1071826797       23.3319438064
 Hg        29.4207514611       14.1242605616        9.6787879316
 Hg        14.5454870241       38.0587377737       29.7760062254
 Hg         8.6171470867       17.2707063381       26.3637288913
 Hg        11.4863926003       20.2454200276       26.5280966114
 Hg        14.4795066973       23.3074256360       26.5036307155
 Hg        17.5006573190       26.2778231355       26.5173775165
 Hg        20.4951547130       29.3064679619       26.5190760616
 Hg        23.5009727915       32.2920645673       26.4937688152
 Hg        26.4980641493       35.3457755434       26.5100592860
 Hg        29.4706475404       38.2775356836       26.3447733047
 Hg        32.1583359171       41.6360338425       26.4743052083
 Hg        38.7324673182       20.1935440758       12.6603000935
 Hg        17.3341694267       40.9777711624       29.5920051833
 Hg         9.6406074736       14.1549403692       29.4289348560
 Hg        11.3839381280       17.2253985506       29.7685499300
 Hg        14.5409725702       20.3122544901       29.4682713312
 Hg        17.5112786817       23.2650959751       29.5598315586
 Hg        20.4964524916       26.2755680440       29.5405627452
 Hg        23.5200073976       29.3080111892       29.5411317915
 Hg        26.5097711035       32.3214255567       29.5532847265
 Hg        29.4604439693       35.3257959841       29.4660175670
 Hg        32.6621286964       38.2672167368       29.5683529591
 Hg        35.0063153870       40.8479171419       29.2168644107
 Hg        14.4414341697       17.4527540365       20.4342948477
 Hg        17.5067301748       20.3340717464       20.5489703823
 Hg        11.6315619993       14.3109968447       32.5668663025
 Hg        14.4360118675       17.1992806122       32.6372844781
 Hg        17.4849378814       20.2393293057       32.6329843433
 Hg        20.4802214339       23.3051761717       32.5363827875
 Hg        23.5439947770       26.3007891932       32.5198858353
 Hg        26.5392934346       29.3449394487       32.5103407241
 Hg        29.5832760730       32.4127424963       32.5516806592
 Hg        32.5887768994       35.5917152701       32.5344187860
 Hg        35.0827265682       38.8854521828       32.5471779609
 Hg        14.2646239757       26.0948178761       11.3254800691
 Hg        20.4857595321       23.3253002081       20.5016819927
 Hg        14.3434421709       14.2812959493       34.6742280221
 Hg        17.4243005702       17.2212170155       35.7968351140
 Hg        20.5490968297       20.3238285503       35.5374490498
 Hg        23.5082081836       23.2967742329       35.5665721786
 Hg        26.5282003594       26.3106686860       35.5156921206
 Hg        29.5200628528       29.2814439105       35.4824126346
 Hg        32.5883875075       32.5100535677       35.5710683318
 Hg        35.6740989025       34.4502405025       35.5663860910
 Hg        17.3732965939       29.3407868454       11.5375592291
 Hg        19.2938239014        7.9147614644       32.5370993059
 Hg        32.3688448221       20.2685740574       11.5829072244
 Hg        23.4800696655       26.3197311582       20.4925563979
 Hg        17.5404383911       14.3502552120       38.7847154849
 Hg        20.4086721551       17.1095598002       38.4819986493
 Hg        23.6370744594       20.3044232218       38.5059136210
 Hg        26.5733982766       23.3338796856       38.5155449384
 Hg        29.5397590328       26.2838978854       38.5255629016
 Hg        32.5471288997       29.4881302571       38.6469671136
 Hg        35.3172586060       32.0767297282       38.0216269101
 Hg        20.4348997528       32.4598506933       11.5497513440
 Hg         8.6965302103       20.2529815213       17.3002881392
 Hg         8.8109592201       14.9699843251       22.8943516126
 Hg        11.6032910033       17.2975365729       23.4177153278
 Hg        23.7618965110       35.5004341797       11.2802796021
 Hg        14.5220483797       20.3036703396       23.5370808410
 Hg        26.4897720061       29.3082510481       20.5024382097
 Hg        29.4766529509       32.2842746439       20.5417787006
 Hg        20.7807130181       14.6992092677       41.0324732984
 Hg        23.5346781626       17.5655914417       41.8036134366
 Hg        26.6599317411       20.3032652459       41.3476696510
 Hg        29.6588070997       23.1943605223       41.4820962630
 Hg        32.5478739040       26.1210518275       41.4162441706
 Hg        35.6014287793       29.2156844384       40.3874762805
 Hg        35.5429312049        9.6892470071       20.4314241800
 Hg        11.6037252307       23.2461488701       17.5111982912
 Hg        14.5271641159       26.2616168373       17.5343717659
 Hg        17.4546468270       29.3664995044       17.4067061380
 Hg        36.6299134990        8.2035097054       23.6338509275
 Hg        29.6210834060       38.0759184307       20.3958748830
 Hg        20.5201128156       11.3816097516       32.3145495944
 Hg        20.4312233295       17.1188864435        8.8404687132
 Hg        23.4147845451       20.1049149678        8.5645345278
 Hg        26.4266015111       23.3641359225        8.6569792844
 Hg        29.7045620513       26.4049782468        8.5656531688
 Hg        32.7333797846       29.3217027213        8.8000000447
 Hg        32.2975703025       11.3749182654       20.5491958358
 Hg        17.4948544420       23.3175182288       23.5233112717
 Hg        32.4310078933       35.4466304340       20.4732394421
 Hg        20.4954956097       26.3108009577       23.5063476655
 Hg        23.5214293543       14.3435248103       32.4946453249
 Hg        20.2474616759       14.3225986018       11.7515875086
 Hg        23.4212272820       17.2679302897       11.6368944397
 Hg        26.5281829327       20.2284046467       11.5055984664
 Hg        29.4667043005       23.3051458625       11.5158973103
 Hg        32.5329065467       26.3203684898       11.6562573884
 Hg        35.3769890974       29.3515832320       11.7558051699
 Hg        35.6991004548       14.3022911442       20.3662759179
 Hg        23.4831291817       29.2888947876       23.4975521941
 Hg        26.4631974241       32.2910073846       23.5109293258
 Hg        26.5190255576       17.2554475538       32.5935917085
 Hg        20.2029639669       11.4757584652       14.5302299011
 Hg        23.4931486528       14.2000501027       14.4602289735
 Hg        26.5199779208       17.2598021097       14.5176206591
 Hg        29.4615147130       20.2958684714       14.5603941728
 Hg        32.4819936313       23.3096929259       14.5598218633
 Hg        35.7097547445       26.2358646230       14.5872404928
 Hg        38.4479633708       29.8190899143       14.2089070278
 Hg        29.4637175839       35.2188605734       23.4859852313
 Hg        32.4505663523       38.1156012733       23.4735146989
 Hg        34.7378666868       40.4898347695       22.8564461223
 Hg        32.6561738550       19.3282331912        8.0549616610
 Hg        13.3363428352        8.0629354967       26.2175944855
 Hg        20.4242402805        8.5012570055       17.3627958438
 Hg        23.4058176570       11.3861686659       17.5272032030
 Hg        26.5219262059       14.2708085364       17.4897208290
 Hg        29.5824916976       17.2491635328       17.4968669130
 Hg        32.6230759156       20.2284959742       17.5063562043
 Hg        35.5741945818       23.1416996684       17.3992178993
 Hg        38.3097061681       26.3341475517       17.5861689063
 Hg        41.5530099951       29.2707762175       17.5213379194
 Hg        29.4741091205       20.3126811871       32.5138852144
 Hg        35.6966859958       19.9895244917       10.2547658675
 Hg        36.5134167697       23.2898541687        8.3720839144
 Hg        36.6546107024       25.9768455387       41.7745425824
 Hg        29.7731290726       17.2058597732       11.4029868958
 Hg         8.2313618842       36.4204166160       23.8675357872
 Hg        23.3617221990        8.3667719283       20.4065419093
 Hg        26.4610589581       11.3023243714       20.5008757966
 Hg        29.4635266750       14.3314565402       20.5239128981
 Hg        32.5751209321       17.2836822719       20.4743030605
 Hg        35.5215127266       20.3196762228       20.5687023044
 Hg        38.4803161108       23.4439997992       20.5465507639
 Hg        41.3193983959       26.4513121667       20.5573571551
 Hg        13.3149426824       41.5079867986       23.8440497387
 Hg        20.4317749436       32.3098834613       17.3981561471
 Hg        35.7922447234       38.2268805445       19.9841398293
 Hg        23.5237515305       35.2379572414       17.5385614623
 Hg        26.5303662740       38.1533801021       17.4863431018
 Hg        26.4147330419        8.4286315550       23.5950925407
 Hg        29.4605565956       11.2942641865       23.5576624374
 Hg        32.4807790993       14.3411337809       23.5499764549
 Hg        35.5556619128       17.1984351687       23.4332208843
 Hg        38.4920464010       20.3102158345       23.6627971102
 Hg        41.4942514208       23.3041737516       23.5419832701
 Hg        32.5263679483        7.9058282451       19.3347994446
 Hg        29.5385080402       41.0016373804       17.2789939023
 Hg         8.3584322591       23.2843292221       36.5430752288
 Hg        20.4560203347       32.5155739197       41.2415631314
 Hg        32.5656033420       23.2954923397       32.5870499171
 Hg        35.6557385236       23.2782553060       12.0512576073
 Hg        29.6241185771        8.3777291155       26.6602446883
 Hg        32.5030814813       11.4022457100       26.5792362770
 Hg        35.6806762696       14.3363967561       26.5223928936
 Hg        38.3304220059       17.3384128503       26.5579686447
 Hg        41.3274156679       20.3124440967       26.6845795093
 Hg        32.6911497479        8.4963601503       29.5925401104
 Hg        35.3985493919       11.5149162233       29.6727638676
 Hg        38.4310286261       14.0331654939       30.0179313437
 Hg        41.5685598389       17.2533711366       29.5095244372
 Hg        38.7755392755       14.3464837038       17.5732458363
 Hg        22.9878024817       34.6079474269       41.2480697311
 Hg        35.5124229929       26.3159991107       32.5481107810
 Hg        14.3852224565       11.6625984821       26.4790801885
 Hg        17.4618261603       14.2808503942       26.5325278329
 Hg        20.4750351656       17.3197587874       26.5181862329
 Hg        38.6140316642       29.5633868241       32.6055213562
 Hg        26.4922913532       36.2924167777       41.6882029133
 Hg        38.7164789589       14.0384209058       23.7638767874
 Hg        41.7909510449       17.5748745741       23.5600157685
 Hg        41.9462557097       32.4533803127       30.5011575765
 Hg         8.2556533703       13.1306540524       26.1900141632
 Hg        11.8403610415       14.1847711586       26.4347555489
 Hg        14.4844479214       17.2682953476       26.5316427818
 Hg        17.5120350362       20.2772907179       26.5179066388
 Hg        20.5023452155       23.2967100885       26.5287379101
 Hg        23.5032890376       26.3041563186       26.5264663518
 Hg        26.5198772655       29.3219495246       26.5363235915
 Hg        29.5227413667       32.3156735206       26.5044141006
 Hg        32.6173284793       35.3725850712       26.6438174308
 Hg        35.7030782036       38.5219508697       26.2442534073
 Hg        27.1226939445       15.0309892197       40.7254928662
 Hg        12.6459201236       20.2034127842       38.7498352330
 Hg         8.0529354981       30.2972273368       17.4027805953
 Hg        11.9782804995       35.0934671898       17.7614120252
 Hg        14.4909647662       38.1672179077       17.4537061830
 Hg        19.5006831195       41.7314364461       17.3613014531
 Hg        23.4938655705       20.3034338355       26.5256232630
 Hg        14.2850888294       23.4591793010       38.7376496030
 Hg         8.6211768054       29.0602076423       20.8933397035
 Hg        11.3611144186       32.3194304912       20.3529514610
 Hg        14.4572316714       35.3874948159       20.4245905366
 Hg        17.4002498123       38.3941171148       20.2538867841
 Hg        20.6885933490       41.2089868631       20.8884432323
 Hg         8.3239204761       26.2837336597       13.5090373799
 Hg         8.6311597894       26.2262516622       23.6112380600
 Hg        11.4969788036       29.3188698235       23.5529262009
 Hg        14.4653460080       32.3295820360       23.4943868293
 Hg        17.4672080967       35.2890883316       23.5083357070
 Hg        20.4333511659       38.3059360053       23.4941806226
 Hg        23.5726519282       41.1465257795       23.5835942441
 Hg        12.5772145931       29.3186448284       11.2965005167
 Hg        29.0831929809        8.4448463171       20.7390553166
 Hg        17.5665169720       26.3308941132       38.3289800746
 Hg         8.6339501753       23.3630066835       26.4515437707
 Hg        11.4892033818       26.3275973627       26.5372817477
 Hg        14.5332496181       29.2876443013       26.5148341516
 Hg        17.4297038747       32.3446093499       26.5352494768
 Hg        20.5043974606       35.2873211004       26.5102325598
 Hg        23.4019648273       38.2918812736       26.4450822492
 Hg        26.4774215998       41.2952569782       26.5008923575
 Hg        15.0227270214       32.3352892351       10.9012518840
 Hg        26.5066190770       23.2991239859       26.5224396883
 Hg        38.4700730588       17.1097341362       20.4363006590
 Hg         8.8065999937       26.7854391718       34.8655692739
 Hg        11.7222659213       29.3606124813       35.4126640760
 Hg        14.7006118465       32.2942237460       35.3011142708
 Hg         8.6082664772       20.5156990138       29.1676776226
 Hg        11.5056437771       23.3300517651       29.4763449248
 Hg        14.5495019426       26.2783047338       29.5033568644
 Hg        17.5092028854       29.2539097288       29.4939895565
 Hg        20.5310707720       32.2869030443       29.5049531225
 Hg        23.4784944646       35.2177322382       29.4716849709
 Hg        26.3317973418       38.2788407622       29.4771485029
 Hg        29.2296437864       40.5976942687       29.2604265560
 Hg        17.4532702187       34.8732959820       10.9342742689
 Hg        20.3857983843       29.4090401064       38.3170155525
 Hg        17.4560330543       20.3023943689        8.4600788191
 Hg        20.5279854279       23.1112276770        8.6932747686
 Hg        23.5001033325       26.2623568249        8.5159103464
 Hg        26.6695810624       29.2471885218        8.7039875342
 Hg        29.4949578054       32.2678748071        8.4507238193
 Hg        29.4952614513       26.3176908147       26.5347986523
 Hg        40.8218521071       20.5613131721       20.7705533640
 Hg        26.4615261170       11.6418578699       14.4184473297
 Hg        23.4689467098       32.3232554752       38.3869322810
 Hg        20.3637714184       20.2042673537       11.7376592959
 Hg        23.5664205362       23.1966539253       11.5206989372
 Hg        26.5721325881       26.2533810884       11.5304271445
 Hg        29.6182655009       29.4126229913       11.7220653339
 Hg        32.4880861603       29.3396037543       26.5431116551
 Hg        17.5212987492       29.2682256391       41.5800067498
 Hg         8.0402031117       19.3423855189       32.6686798805
 Hg        11.5599230592       20.2884505054       32.3724654817
 Hg        14.5394472785       23.3168583132       32.5017818120
 Hg        17.4764714113       26.2997044915       32.6137974347
 Hg        20.5229542989       29.2672089946       32.5147895302
 Hg        23.5004757676       32.3866164551       32.5450476148
 Hg        26.6352073221       35.3700058350       32.6317034642
 Hg        29.5566707451       38.2772231768       32.6328495612
 Hg        29.4816679673       17.2501066892       41.5862233492
 Hg        17.4766091480       14.4816880973       14.7055623243
 Hg        20.4193319840       17.4808431135       14.4891215333
 Hg        23.5118192491       20.2985383977       14.5206504032
 Hg        26.5075798809       23.2800447768       14.5283679603
 Hg        29.4783524705       26.2912536732       14.5368622869
 Hg        32.3244661485       29.3497069236       14.5056692974
 Hg        35.2733373872       32.2956131059       14.7063831812
 Hg        35.4477914406       32.2702811537       26.4839614944
 Hg        20.5353605794       37.1948100059       11.2846099949
 Hg        38.7239258279       12.3549298523       20.5270534850
 Hg        20.4054614255        9.6867133416       35.5530426104
 Hg        14.4045433954       14.2854911566       29.6215275921
 Hg        23.5363003995       11.9450305109       35.5917788659
 Hg        26.4909386243       35.4288924580       38.0048734117
 Hg        20.4211568840       14.2442063590       17.6545151246
 Hg        23.4940379252       17.2264497532       17.4653256586
 Hg        26.5075508482       20.2612531785       17.5375911090
 Hg        29.5512140156       23.2597073418       17.5269778415
 Hg        32.5952314486       26.2904356143       17.4907189807
 Hg        35.6621386065       29.3207261207       17.5769956313
 Hg        37.9396296863       35.4280691514       26.5013567019
 Hg        14.4251756395       20.0651804435       35.6310060249
 Hg        17.3839489974       23.1478812487       35.5907904089
 Hg        20.5403945604       26.3154229182       35.4410777555
 Hg        23.5032102260       29.2759207744       35.4981701367
 Hg        26.4797333190       32.2806074109       35.4771461938
 Hg        29.6823409898       35.4469124924       35.6065292714
 Hg        17.3340056315        8.5063618512       20.4438576694
 Hg        20.4062967462       11.5519352074       20.4316697882
 Hg        23.5065280385       14.3289359827       20.5330962073
 Hg        26.5037641314       17.3129127871       20.5043953534
 Hg        29.5387926508       20.2844164004       20.5036049236
 Hg        32.5198443823       23.3014721236       20.4999858376
 Hg        35.4226959062       26.3111548666       20.5509354617
 Hg        38.2899379145       29.4098588410       20.3964556319
 Hg        41.2213076078       32.5114144336       20.4626224349
 Hg        32.5484077273       38.9129849463       34.9847128833
 Hg        23.5069387202       29.3125923360       17.4961859032
 Hg        17.4692897566       17.2614721818       29.5904650013
 Hg        20.3824682814        8.3714065523       23.3851432406
 Hg        23.4799942865       11.2762076918       23.5041098861
 Hg        26.4923065439       14.2735967518       23.5242573863
 Hg        29.5252455578       17.3098065570       23.5057745877
 Hg        32.5126845933       20.2667245063       23.5340169911
 Hg        35.5526419638       23.2936249768       23.5231517681
 Hg        38.4827512655       26.3702389117       23.5581001304
 Hg        41.4567145779       29.4932205892       23.3910338847
 Hg        41.6436332002       36.2988550992       26.4951839829
 Hg        20.4852122609       20.2874979693       29.5527850537
 Hg        15.2498063615       17.1806703868       39.1678717866
 Hg        17.4079611303       20.2435005384       38.4769243273
 Hg        20.5329122804       23.4483985266       38.4956135676
 Hg        23.5444051637       26.3698988308       38.4983738383
 Hg        26.4930244595       29.2641922512       38.5153655205
 Hg        23.5706111065        8.4329959583       26.4396890248
 Hg        26.5240370742       11.2890753301       26.5482040052
 Hg        29.4824225213       14.3307812991       26.5146406077
 Hg        32.5759634527       17.2561220593       26.5414412925
 Hg        35.4321437393       20.3440737975       26.5497216163
 Hg        38.5019553196       23.3447979621       26.6059938014
 Hg        41.3592359401       26.2276207645       26.4349368420
 Hg        29.6099359541       14.2756418439       14.4309178813
 Hg        29.5256206362       32.1533776543       38.4457100228
 Hg        26.5064060012       32.3179607953       17.4225402524
 Hg        23.4884864364       23.2824569649       29.5382833443
 Hg        26.5213304993       26.3180671563       29.5166736697
 Hg        29.5269821566       29.3455989261       29.5432743796
 Hg        32.5194571977       32.4187260727       29.5733726127
 Hg        35.5745685972       35.4240858716       29.7044090637
 Hg        26.6374548019        8.3762133274       29.6544286244
 Hg        29.5984839875       11.5228435854       29.6186025475
 Hg        32.3480537869       14.2464325549       29.5890565194
 Hg        35.6393787559       17.3691338272       29.5516443178
 Hg        38.2937134511       20.1473696143       29.6107064031
 Hg        41.4586452397       23.2101968824       29.6840017883
 Hg         8.8029297783       22.7869894970       15.1889133952
 Hg        37.4075230612       38.5270304347       29.4635460878
 Hg        26.4985236080       35.2714935871       20.5333547662
 Hg        20.7496095468       20.5596823456       40.8350244236
 Hg        23.5245343432       23.2988816097       41.5133562236
 Hg        26.4170156092       26.2223295242       41.3775710506
 Hg        29.5707672852        8.4982134961       32.7187317401
 Hg        35.2724215618       14.5086342983       32.5377226082
 Hg        41.2047050299       20.2312933629       32.6798689312
 Hg        11.9990178513       26.2717907108       14.3948209848
 Hg        29.2900498992       28.9176000057       41.4208203293
 Hg        30.5391570889       32.4198535438       41.9550047248
 Hg        29.5685349449       35.2972935709       17.6914726371
 Hg        26.4951633870       14.3397285997       35.6964048646
 Hg        29.5324284659       38.5188868275       37.4321189388
 Hg         8.7434480775       17.1522868991       20.4185467179
 Hg        35.4701725433       20.0266142976       38.3107852314
 Hg        14.4024204831       29.4675542833       14.3741822958
 Hg        32.6303958273       17.1825134526       14.4631318958
 Hg        17.4682949539       32.3726879712       14.2260345263
 Hg        29.5274941277       17.3644563512       35.6597408488
 Hg        41.8059495435       23.4118082100       17.7617940936
 Hg        26.4285807588       14.1707541249       11.8895123126
 Hg        14.1887752895       29.8263946230       38.4740654526
 Hg        29.1406083953       20.4957940202        8.6000835388
 Hg        32.4707769534       23.4608292897        8.7257842552
 Hg        34.8293320288       26.7948135151        8.7909334433
 Hg        14.6898344040       11.8278023401       32.3047337581
 Hg        41.7395256633       25.9814528764       36.6898230097
 Hg        17.4396026362       14.2556909789       32.7286577032
 Hg        20.4459261264       17.2897838054       32.5892679638
 Hg        23.5112521582       20.2680200032       32.5282762822
 Hg        26.5047080307       23.3241984685       32.5168655568
 Hg        29.5377693070       26.3054969707       32.5080729136
 Hg        32.5378930854       29.3898007618       32.5604055077
 Hg        35.5752539979       32.4369728978       32.6327479450
 Hg        23.6058756797        8.2019040678       36.6425412014
 Hg        29.5771358428       38.0482117026       14.6314914919
 Hg        32.3265644823       20.2097722827       35.5556673646
 Hg        11.7076391243       20.1924531667       14.6177307670
 Hg        15.0868345384       20.4943544524       41.0697444888
 Hg        29.9995676509       14.0225020997       38.4516932926
 Hg        14.4260508275       14.2228601362       23.5083898929
 Hg        20.3361691842       14.3050209274       35.7120464119
 Hg        34.8057474614        8.6492801569       27.0745467865
 Hg        23.4050582225       17.1975018860       35.5695104619
 Hg        22.8821493667       14.9452637623        8.8050617439
 Hg        17.4363420694       17.2384818396       23.4994725847
 Hg        14.5434341701       23.3358978035       14.3276906518
 Hg        26.5296774004       20.3402526617       35.4468531446
 Hg        14.4277224287        9.4376770320       29.4520076088
 Hg        17.4627757190       11.1818434548       29.6852350027
 Hg        29.4968799373       23.2998521637       35.5162945492
 Hg        40.7137411927       15.0358189154       27.1489013733
 Hg        17.7589620157       23.4062997284       41.8262421988
 Hg        20.5496881579       26.4516255262       41.3387818874
 Hg        32.5430151446       26.3288982034       35.5466192829
 Hg        35.6044844091       29.4007599046       35.5524066800
 Hg        38.3855136588       32.3679706974       35.5088613165
 Hg        20.4883336665       20.2970188048       23.5303425303
 Hg        17.4963669814       35.0604048924       35.3304978961
 Hg        20.0003427657       38.2271047486       35.8081906558
 Hg        22.8831120862       40.4857736057       34.7733412026
 Hg        35.5741511530       23.2920820493       35.5988397001
 Hg        17.3778932861       26.4160922082       14.4495441674
 Hg        20.5380570367       29.2535686939       14.4863797313
 Hg        23.4960381589       23.3050328738       23.5087646747
 Hg        38.1481779546       26.2264608518       35.6428282338
 Hg        15.2430535057       22.6757077263        9.3153147744
 Hg        17.7523232021       26.1870915599        8.2076359656
 Hg        20.7439078196       29.0208693278        9.2124429375
 Hg        23.5266890340       31.9436135480        8.1764437063
 Hg        27.1491772646       34.5276415473        9.3140838845
 Hg        20.4950928662       14.3374590760       29.4800915504
 Hg        23.4824337462       17.3118932656       29.5412989381
 Hg        26.4824634638       20.2869577158       29.5308033666
 Hg        29.5141219358       23.2970481453       29.5326870975
 Hg        40.3600162799       29.2210369623       35.6708194549
 Hg        14.2242510352       19.8061894544       11.5907769082
 Hg        17.5562662940       23.2507433900       11.6948062859
 Hg        20.5305371218       26.1238127114       11.5329637661
 Hg        23.6593407138       29.2623001317       11.5325527902
 Hg        26.5292139083       32.2412541873       11.6892462788
 Hg        30.0243451020       35.5804719998       11.5693491743
 Hg        26.5054609199       26.3032157943       23.5134765799
 Hg        32.4861597409       26.3074086677       29.5545366540
 Hg        29.5159095365       29.3050667928       23.5262308174
 Hg        32.4769242203        8.4590570937       23.7224715897
 Hg        11.7379420355       20.2241908096       20.4030077575
 Hg        14.9941304127       29.0185154671        8.9650202352
 Hg        14.6981544814       17.2918378349       14.7449524781
 Hg        17.5633989705       20.2724354405       14.3688988288
 Hg        20.5409466585       23.2730141594       14.5919386150
 Hg        23.4982244433       26.2914941399       14.4652176884
 Hg        26.5230951859       29.2579928617       14.5868784567
 Hg        29.5386210122       32.2186343450       14.3507650933
 Hg        32.5113480154       35.0930630371       14.7386475121
 Hg        32.5245045025       32.3833843119       23.5050781945
 Hg        20.7835317505       34.7933415365        8.9616745147
 Hg        14.6829333329       14.4798964393       17.4935473248
 Hg        17.5694800109       17.3785737441       17.5787618947
 Hg        20.5167226432       20.3235170558       17.5235445105