    1259
 i =      122, E =    -35850.1819942803
 Cl        20.1039063965       43.6033431403       20.2920835728
 Cl        25.9600532172       43.5607340518       25.9530786365
  S        40.7300811038       17.2416830106       26.0664017851
 Cl        43.5389237373       20.2719722299       25.9287791733
 Cd        33.5175788761       21.4758250486       42.0914223042
  S        20.1493919513       34.7545239806       28.8798125846
  S        22.9849567753       37.7772889461       28.9495691213
  S        25.9286143877       40.6972258391       28.9064775686
 Cl        28.8621519660       43.5290915994       28.8591649093
  S        20.0993229909       31.8740370328       20.0735284845
  S        34.6083471587       40.8260870876       31.8262132187
  S        11.1002563180       25.8697880991       16.9926689292
  S        23.0286518298       31.8654790778       23.0219964163
 Cd        36.4407332392       21.5561100198       15.6388528971
  S        23.0209511368       34.8250989592       20.0604718582
 Cd        33.5405629381       42.1061762696       21.5439902428
  S        25.9850092478       17.1123330867       28.9598525892
 Cd        10.4830974604       30.2733401656       15.8841106044
  S        31.9134456024       14.2574309360       20.0826418802
 Cd        15.8996798893       36.0256733567       15.9692162723
  S        34.9026781423       17.1473631397       20.1163874882
 Cd        21.7249186280       41.5149413943       15.8868884149
  S        41.3381728268       30.3545470439       15.9855695137
  S        23.0941052229       25.9728289163       17.1610050053
 Cl         8.4574825328       28.9039271313       23.0855129259
  S        11.3370175715       31.8799730364       23.0015956675
  S        25.9872213785       37.7832872690       20.0167288228
  S        17.2856514358       14.1612880860       34.9164515859
  S        20.1216627863       17.1342442006       34.8988276025
  S        23.0760312792       20.0891669877       34.8382679372
  S        25.9921260092       23.0710779224       34.8145240229
  S        28.9476379012       26.0072068051       34.8371630285
  S        31.8869085471       28.9551150343       34.8371053161
  S        34.8286970615       31.8857328476       34.8230307267
  S        28.9293828145       28.9643726823       37.7571740536
 Cd        41.9339375345       28.0229126985       16.4042394488
 Cd         9.9132153561       27.2950723225       18.7179356058
 Cd        12.8174068565       30.4516339021       18.5600840735
 Cd        15.6566080955       33.3708768857       18.5493188325
 Cd        18.5697013209       36.2804468827       18.5463205405
 Cd        21.5355112115       39.1668086289       18.5569853266
 Cd        24.7048971680       42.0192839425       18.7189175334
 Cd        27.0540275335        9.4985593210       15.0622558847
  S        17.1655630007       20.0876894761       28.9434323430
  S        37.7721138160       34.9255024143       34.7112750627
 Cl        26.0779622835       43.5475898403       31.7025610127
  S        11.2009467719       23.2653414249       37.7969359278
  S        14.2195225456       26.1925667364       37.8347119752
  S        17.2633311039       28.9340170933       37.6498203313
  S        20.0218732470       32.0096962895       37.7812232011
 Cd        41.9363583106       15.8019118223       21.7111324583
 Cl        23.0506617545       17.2044792850       43.5636365960
 Cl        25.9170728858       20.2476285189       43.5086160500
  S        31.8708438218       31.9093925132       37.7199742858
 Cd        24.4793426724       33.3456798635       21.5402333828
 Cd         9.8846271216       24.4553155775       21.5518212620
 Cd        12.7533958059       27.4557104530       21.5494214133
 Cd        15.7316904371       30.3695666816       21.5556870860
 Cd        18.6316146916       33.3455631211       21.5459706613
 Cd        21.5622043203       36.2676937892       21.5496448033
 Cd        24.5411742629       39.1919565515       21.5434438525
 Cd        27.5407641197       42.1015546647       21.5458811219
  S        20.0959258784       37.7250832483       20.0670527247
  S        20.0926961869       23.0307647248       28.9564497148
 Cd        36.4527978662       12.9206719165       24.6312901761
 Cl        29.0187137670       22.9760932000       43.5191923714
 Cl        31.7209172159       26.1118114918       43.5118548048
 Cl        35.0310188347       28.7512283780       43.3213195573
 Cd         9.9055029812       33.5179206092       30.4650642263
 Cd        35.7623452060       23.7899273405       42.3463773573
 Cd        33.5127907647       15.5477611681       13.2484731860
 Cd        13.0502595872       15.8069944244       21.4531303694
  S        20.0592428015       14.1595857676       37.8474718522
 Cd        13.0531090777       36.1892793084       30.5365431611
 Cd         9.8908768912       21.5547144374       24.4654075299
 Cd        12.7965405490       24.5187001349       24.4813300114
 Cd        15.7138915001       27.4514788850       24.5201427934
 Cd        18.6390026447       30.3787455096       24.5288839859
 Cd        21.5620736123       33.3438710676       24.4889298782
 Cd        24.5305458530       36.2797311802       24.4781422532
 Cd        27.4587579553       39.1903122422       24.4647728643
 Cd        30.4507198982       42.1129327448       24.4615244510
  S        23.0411041849       40.6781748874       20.0419956755
  S        23.1104297782       17.0871892905       37.8438629711
  S        26.0269673178       20.0916759684       37.7238451895
  S        28.9620259166       23.0220688701       37.8018195020
  S        31.9121356367       25.9865507009       37.8181284965
  S        34.8526852035       28.8541346662       37.8220386393
  S        37.8098796430       31.5905272621       37.8095143862
  S        25.9871639380       14.1697607558       20.0396453797
 Cd        30.2155522306       15.7238082243       10.5793615566
  S        23.0578672953       34.8260266760       37.6438380372
 Cd        15.8119257083       38.9468652463       30.5369260896
 Cd         9.9860869381       18.7294173369       27.3682463713
 Cd        12.8016794388       21.6153531442       27.4624145056
 Cd        15.7184883131       24.5319889871       27.4671990933
 Cd        18.6309814043       27.4527870424       27.4682841342
 Cd        21.6172627159       30.3761938616       27.4423258536
 Cd        24.5318771012       33.3623637593       27.3880796593
 Cd        27.4491769930       36.2852040033       27.4441997882
 Cd        30.3702494364       39.1960061827       27.3763788733
 Cd        33.3514992315       42.2538927678       27.4406194191
 Cd        39.7704236935       21.4648748107       13.5542679715
  S        25.8076490064       37.8917937083       37.7651572918
  S        28.5751813693       40.9779044717       37.7053919686
  S        23.0471460273       17.2319194453       14.3117951811
 Cl         8.4005288604       20.0462921643       31.6957535535
  S        34.7141814150       34.9269004477       37.7744853620
 Cd        18.4849204389       42.0981887755       30.4668467017
  S        23.0440944844       37.6751965912       34.7201860184
  S        25.9286610815       40.7419470731       34.7170229499
  S        23.1312533410       20.0826651099       40.6546099674
 Cd        10.6557635479       15.7202100313       30.2088991855
 Cd        12.8985712603       18.6149139683       30.4321737636
 Cd        15.7318961417       21.5645631678       30.4342502740
 Cd        18.6412905325       24.5309457386       30.4371064603
 Cd        21.6210781757       27.4496330081       30.3775981235
 Cd        24.5478315945       30.4323216445       30.3765529111
 Cd        27.4569437572       33.3661941513       30.3830884851
 Cd        30.3803083096       36.2943632529       30.3743882785
 Cd        33.3663845365       39.2667955570       30.3735741426
 Cd        36.1890495183       41.9414533625       30.2818433119
 Cl        25.8948590709       43.5136514376       20.2582052717
  S        22.9461628440       40.7332227074       31.9191691093
  S        23.0661516424       25.9629708686       28.9149302051
  S        11.3157250604       23.0182706940       31.9460754319
  S        14.1947622424       25.9873475946       31.9625342389
  S        17.1939500654       28.8948024371       31.8425903885
  S        20.1676420725       31.8020104305       31.7924109994
  S        23.0650092261       34.7694621555       31.8242337576
 Cd        15.7207315414       18.7871465873       21.5460646037
 Cd        18.6605617839       21.6330525198       21.6336638840
 Cd        13.3078743787       15.5512839497       33.4459224638
 Cd        15.7214949313       18.5611210974       33.4456509582
 Cd        18.6385552460       21.5518286374       33.4331356859
 Cd        21.5702638671       24.5321645221       33.3617629782
 Cd        24.5431264127       27.4700495688       33.3574119086
 Cd        27.4684499199       30.4507866455       33.3561295392
 Cd        30.4398435115       33.4338915703       33.3564621673
 Cd        33.3504276407       36.3633114690       33.2908877170
 Cd        36.0242103722       39.1820350639       32.9440123097
  S        23.0700988174       14.1790953255       28.9561950070
  S        23.3869328897       14.1710367154       40.9372172593
  S        26.0634422430       17.1927370392       40.7172827936
  S        29.0381832542       20.0406953876       40.7150313964
  S        31.9303918935       22.9663044777       40.7175295691
  S        34.9280141153       25.8650793778       40.8940212675
  S        37.8413073680       28.5454332802       40.8815928616
  S        20.0927435902       28.9149183180       23.0411129102
 Cd        15.5613069998       27.3564648704       12.7255144279
  S        37.7242401666       20.1397378853       26.0365803432
 Cd        21.6155734105       24.5405737594       21.6182341211
 Cd        15.9715996914       15.9016108169       36.0310769221
 Cd        18.6447190059       18.6379513740       36.3576762513
 Cd        21.6191890712       21.5650071753       36.3013702048
 Cd        24.5331501328       24.5387634535       36.2835119817
 Cd        27.4593661429       27.4712420311       36.2752889008
 Cd        30.3801949731       30.4413855829       36.2611536053
 Cd        33.3748288088       33.4483963983       36.2818156760
 Cd        36.0235183326       36.0330226784       36.0233755790
 Cd        18.5717561983       30.4370836766       12.7233071536
 Cl        28.9707530053       43.6344090701       34.7188948567
  S        14.1891701445       34.8273208847       23.1397622111
 Cd        18.9641066205       10.0701068226       33.0203087396
 Cd        33.4340412313       21.5378362577       12.8108853071
  S        26.0025582483       28.9459086003       28.9180541072
  S        25.9590493270       37.7281537832       31.8459059672
  S        28.8449500992       40.6874787346       31.8619688315
 Cl        38.5346428893       34.9799462058       38.5311854320
  S        25.9843260723       20.0551195696       14.1452135274
  S        28.9704450915       23.0167488795       14.1762111605
 Cd        24.5388165949       27.4467912079       21.5558162627
 Cd        18.9943260700       15.9634917350       39.1826728992
 Cd        21.5560774531       18.5622791143       39.2653463020
 Cd        24.6108821242       21.5667746575       39.1863778038
 Cd        27.4724242639       24.5277593436       39.2022383452
 Cd        30.3805933883       27.4649445226       39.1938663701
 Cd        33.3611154214       30.4424567544       39.1003405652
 Cd        36.4273475463       33.4484944885       38.6947079536
 Cd        21.5509604941       33.3671768362       12.7279892799
  S        31.9563951967       25.9887127839       14.1531365484
 Cd         9.9037143471       21.5481332458       18.4657606544
  S        28.8941799839       20.0984675883       28.8950483370
 Cd         9.6546588550       16.2194088209       23.7974201053
 Cd        12.7381893287       18.6234784409       24.4547843006
 Cd        24.6228862592       36.4335704598       12.7170894808
 Cd        15.6586592445       21.5728372775       24.5310235200
 Cd        27.4495908489       30.3744853973       21.5500440784
  S        31.8307213650       23.0915754862       28.8935265260
  S        14.3655817296       14.3547346325       19.9404064981
  S        17.2612086502       17.2512864209       20.1852914923
 Cd        30.3612529052       33.2935468608       21.6114039179
 Cd        21.7090198827       15.7332055484       41.9400751204
 Cd        24.5541272763       18.6252316770       42.1948138555
 Cd        27.5358263751       21.5334516113       42.1063028366
 Cd        30.4414475644       24.4536372690       42.1093022002
  S        31.9087891617       17.1707585847       23.0291008309
  S        34.8394949610       20.1201689829       23.0640784600
  S        37.7834173255       23.0863509875       23.0868209733
  S        40.6990778409       26.0624316741       23.0787949028
 Cl        43.5246801639       29.0291848540       22.9821533542
 Cd        33.2058945964       27.3679209482       42.0145235776
 Cd        36.2076060569       30.2073548555       41.3495742192
  S        37.6721480263       23.0697650390       34.7476252290
  S        20.1806266973       20.1647584109       20.2077007013
  S        23.1058243503       23.0640321140       20.1698770385
 Cd        36.1106155438       10.4845073953       21.7216570095
 Cl        19.9038448605       13.7641387136       41.8061485952
 Cl        28.7302957201       17.7676397325       43.9119998846
 Cl        32.6520695950       19.2590399559       42.7883152315
 Cl        33.9822763964       23.1069764248       43.9830630179
 Cl        37.4706742338       25.0644514642       43.7217109612
  S        11.3487511713       20.0800386949       28.9850416605
 Cl         9.1776686151       32.6389979702       32.6568257234
  S        31.8836289018       29.0019784742       40.6547015788
  S        23.0480133739       11.2593971587       31.9518431584
  S        40.6564582644       29.0027743969       31.8875047032
 Cl        43.6060386171       31.7042011833       31.8934115489
  S        20.0704966323       37.8097167322       26.0033037798
  S        34.8054975228       37.8968836282       34.7964259245
  S        25.9828376925       23.0037672868       11.2558774652
 Cl        32.6425040680        9.1737687682       32.6402703047
  S        34.8452400132       34.9038728198       31.8259896912
  S        14.3716031259       37.6279287486       32.0511386570
 Cd        12.7370480365       24.4545712005       18.5619745382
 Cd        15.6658830829       27.4717576300       18.5725750782
 Cd        18.6323879678       30.4256599917       18.5617864001
  S        23.0189423329       40.7001321981       25.9943137871
 Cl         8.0235569447       23.1815584570       17.9466861007
 Cd        36.9534877894        9.5774219443       24.9368524619
 Cd        30.5142350912       39.1581179703       21.4551863060
  S        37.8186148022       37.8433577245       31.8694657224
 Cl        19.3545189130       42.8679662945       32.6606210574
 Cl        43.5271148055       26.0085236916       26.0101977690
 Cd        21.5416355678       12.8120756255       33.4225025364
 Cd        21.4705136954       18.4795453710        9.9045618385
 Cd        24.4500362054       21.5464015945        9.8207315842
 Cd        27.4607068183       24.5320516675        9.8656008255
 Cd        30.4461391480       27.5421373960        9.8773435959
 Cd        33.5258087063       30.4521486940        9.9009771673
  S        40.8947501560       25.8655984239       34.9297441659
 Cd        33.4292907791       12.8254381441       21.5294255931
 Cd        18.6284116047       24.5284020129       24.5296828524
  S        26.0363761371       23.0505903587       40.6967888009
  S        34.8397188034       26.0021538809       28.9446087042
  S        26.0050063663       25.9453455022       20.1062887154
  S        28.9013894872       28.8707555523       20.1103019987
  S        31.8024778685       31.7975603927       20.1612648147
  S        34.7262854671       34.7242164011       20.1828883971
  S        37.6173468658       37.6212540175       19.9180341999
  S        11.1586174742       26.1250150983       34.9962353595
 Cd        33.2039823471       36.2770856541       21.5449722688
 Cd        21.5633124608       27.4552004404       24.5323342408
 Cd        24.4848596177       15.6609044530       33.3726523747
 Cd        21.3947243883       15.8063433490       13.0514539331
 Cd        24.4274269920       18.6170716649       12.7226514815
 Cd        27.4655638986       21.5585943305       12.7353519671
 Cd        30.4433757456       24.5309525439       12.7405789594
 Cd        33.4314395934       27.5405939251       12.7382510940
 Cd        36.1924850918       30.5466352657       13.0576653913
  S        14.3593390822       28.9354727536       34.7869216610
 Cd        36.4394503171       15.6387656272       21.5537009129
  S        11.3406447608       19.9248226410       34.8064798281
  S        14.2011864687       23.0457052320       34.8702931915
  S        17.2154588170       25.9387600947       34.7999545515
  S        26.0004393723       14.1498245760       31.9532665341
 Cd        24.5269063028       30.3842512020       24.4728360050
  S        20.1631923377       28.9288475230       34.7652159669
  S        23.0777113013       31.8597822080       34.7766411476
  S        26.0210219877       34.8428924664       34.7802477348
 Cd        27.4482918346       33.3558230338       24.4718835770
  S        34.8810092143       32.0331163480       40.5629927328
 Cd        27.4558461745       18.6385577979       33.3606715064
 Cd        21.4407473567       12.9971843520       15.7956712578
 Cd        24.5524171448       15.7233975615       15.7106222034
 Cd        27.4646847258       18.6313869627       15.6551398950
 Cd        30.4273598402       21.5681765399       15.7189982846
 Cd        33.3820938503       24.4817416996       15.6633414055
 Cd        36.2877945486       27.3756913757       15.7320028502
 Cd        38.9212792561       30.5400239414       15.8095389471
  S        17.2704692187       31.8172933706       34.7198458282
  S        14.2004105124       31.9857533661       31.9845597772
 Cd        30.3629458946       36.2724790729       24.4679147552
 Cd        33.2849986043       39.1885518598       24.4657572803
 Cd        35.5310966384       41.9410812719       23.9635466161
  S        28.9030796150       37.8361387522       34.8388679898
 Cd        33.0324876553       18.8970941235       10.0801084726
 Cl         8.4846240292       25.9927451049       26.0048388761
 Cd        15.1396287131        9.4186238139       27.0463374605
 Cl         8.3975052541       25.0714683734       14.3576874178
  S        11.1203584530       28.7142131795       14.1759300990
  S        28.9408203467       31.9401574366       34.8187776581
 Cd        21.5402232116        9.9005684919       18.4775791548
 Cd        24.4599279558       12.7326568802       18.5677466938
 Cd        27.4657177351       15.7114244718       18.6284282150
 Cd        30.4467722831       18.6297731309       18.6264354030
 Cd        33.4300235556       21.5568674028       18.6271414612
 Cd        36.3427736403       24.4854189561       18.6244681379
 Cd        39.1906070538       27.5260351252       18.7089909545
 Cd        42.1070791430       30.4495999176       18.3976917429
 Cd        30.3607306399       21.6324020243       33.2945482441
  S        14.1421534502       31.8856453031       14.1368815460
  S        17.1389676260       34.8062417436       14.1109469615
 Cd        36.1099068232       21.7187535469       10.4826691812
 Cd        36.9506196688       24.9385072828        9.5736911926
 Cd        36.8603571766       27.0471961697       42.5060715579
 Cl        28.9190093054        8.4770582588       23.0606767788
  S        31.8478425057       40.8521544710       34.6229898355
 Cd        30.4452388097       18.5746082975       12.8778392518
  S        37.7632960890       28.9643773118       28.9303378718
  S        11.1399102703       14.1051467449       28.5348613557
 Cd         9.4933278265       36.8617065472       24.9559446087
 Cd        24.4661535842        9.8900688415       21.5441937285
 Cd        27.4738996490       12.7958368437       21.5551512460
 Cd        30.4413274736       15.7231129108       21.5584418449
 Cd        33.4332120361       18.6316645971       21.5539011673
 Cd        36.2958533480       21.6160520805       21.6131327190
 Cd        39.1915747616       24.6203951517       21.6193942712
 Cd        42.1123872611       27.5382867934       21.5420483119
  S        28.8960411041       17.1860162044       31.8419974970
 Cd        15.1375379455       42.5070986236       24.9541541407
  S        28.9901611859       14.1945516568       23.0307479163
 Cd        21.5523460422       33.3503798196       18.5595920863
 Cd        36.1846428262       38.9286262336       21.4540805602
  S        14.2592880487       23.4172880292       40.9706585423
  S        17.2505447627       26.0721421796       40.7121685198
  S        20.0858161585       29.0475132289       40.7034793755
  S        23.0093786687       31.9597389083       40.6828343497
 Cd        24.4779351898       36.2845253647       18.5624363419
 Cd        27.5436800231       39.1971637322       18.5622625285
  S        14.1872792840       17.1158782649       28.8573765003
  S        21.5488751712       10.5927851808       16.0599100974
 Cd        27.4580045316        9.8916200851       24.5376082806
 Cd        30.4529814551       12.7437225258       24.5323240104
 Cd        33.3782877660       15.7021040452       24.4884747193
 Cd        36.3474767324       18.6278950417       24.4808652076
 Cd        39.1915358342       21.6197713260       24.6196125683
 Cd        42.1070037078       24.5559383623       24.5567166078
 Cd        33.0281233154       10.0789505802       18.9503299284
  S        31.8374586854       37.7325124827       25.9453510331
 Cd        30.4519259215       42.0829837012       18.4691965987
 Cd         9.6532164657       24.9406983048       36.9674293451
 Cd        21.5473106199       33.5263504011       42.0900613731
  S        25.8693510616       35.0146145410       40.8332464578
  S        28.7291353631       37.8209273584       40.8189899859
  S        28.8993460369       31.8219676871       17.2003438072
 Cd        33.2940670201       24.5387635098       33.3497866924
  S        20.1535523487       20.1158746640       37.7717739795
  S        14.2225461663       28.5668841942       11.0365487475
  S        17.3154069121       31.8361938140       11.1315951699
  S        20.1725265739       34.7382543498       34.7126209362
 Cd        36.5039464805       24.6290115111       12.9118809289
 Cd        30.4523917709        9.8799827725       27.5422797357
 Cd        33.4311219516       12.7406800710       27.5417506872
 Cd        36.2896544624       15.7310987746       27.3777638517
 Cd        39.1909075201       18.7064505286       27.5243044438
 Cd        42.1125360819       21.5413199050       27.5381429877
 Cl        26.1348866983        8.5078589316       20.2542788201
  S        34.7349705339       40.7349734681       25.9241108392
  S        20.0928818288       34.6068729860       11.1722775959
  S        23.3526916457       37.7315282611       11.0319047752
  S        11.3048476525       28.9458781913       26.0194027254
  S        17.1441302606       28.9251194216       25.9979162918
  S        14.1604969118       20.1003737628       37.8506414674
  S        17.1359587103       23.1002128879       37.8332995223
  S        20.1468598971       26.0321573860       37.7193991438
  S        23.0479521656       29.0137254084       37.7744683101
  S        25.9946029487       31.9699486343       37.7857433524
 Cl         8.5120095316       20.2624775148       26.1324522245
  S        11.3139589355       23.0470227362       25.9748287311
  S        31.9568807001       11.2765547116       23.0269366875
  S        14.2311028281       17.2436886747       34.9382509454
 Cd        33.5313393227        9.9035144393       30.4515947716
 Cd        36.1937620795       13.0585077763       30.5491352768
 Cd        38.9211674515       15.8082537744       30.5408605810
 Cd        42.1047656660       18.3902401557       30.4446214484
 Cd        39.1871696200       15.9649556376       19.0497327342
 Cl        38.1559535770       41.7658667850       32.0830236210
  S        28.9247867094       34.9075977577       37.7924607931
  S        31.8980825113       37.8639806523       37.8307333447
  S        28.9693217944       25.9965535363       11.2720322076
  S        31.9427958982       28.9971820090       11.2897593712
 Cd        23.7880323162       35.8564973124       42.2643111981
  S        20.0524332147       37.8192903123       14.1573978333
 Cd        36.2822729949       27.4601906126       33.3506013565
  S        10.6447534395       21.5448928578       16.0631518275
  S        14.2025768511       25.7945626037       14.1456324742
  S        17.1230033505       28.8818728215       14.1663749564
  S        20.1223811913       31.8376569256       14.2159382427
  S        23.0925613101       34.8559859258       14.1526909041
 Cl        19.3517942097       32.6334359581       42.8336246816
 Cl        14.5225548091        8.2379147909       25.0486226406
 Cd        15.5549766721       12.8199659559       27.2913384361
 Cd        18.6447663876       15.6558248234       27.4586634772
 Cd        21.5879222892       18.6279832993       27.4679985091
  S        29.0062418204       11.3364629518       20.0498651643
 Cl        23.1976554069       34.0797150782       43.9415188439
  S        26.1855517030       37.7943359114       14.1162175423
  S        30.4752443874       41.3398052321       16.0588015076
  S        11.4411342584       17.0706355521       32.0203921858
  S        23.2817829276       40.8765924416       14.1773766212
 Cd        39.1002234587       30.4417925599       33.3625194883
 Cd        27.0506674741       36.9617274601       42.3502796793
 Cl         8.5775234336       28.6565330553       16.8971199763
  S        17.2535480113       14.3139991350       23.0688727124
  S        20.1580673888       17.1831733919       23.1035979492
 Cl         8.0160764344       33.9822383422       28.8337707903
  S        34.7796651116       28.9186169932       14.3403463371
 Cl         8.2832617814       14.4919118760       25.0561787847
  S        20.1274271792       31.8446539488       25.9693396140
  S        17.3829622214       20.1369061662       40.8365423278
 Cl        25.0583524798       37.6694262890       43.5016980368
 Cd        39.2666176639       15.5624324641       24.6396193239
 Cd        42.2467495058       18.6408436172       24.5576124479
  S        26.0071278387       26.0136754374       31.8796331273
 Cd        41.9121544977       33.0230311687       33.0386588952
  S        11.3527715511       32.0423569622       17.1910003693
  S        14.3426056812       23.0745712196       17.2183470411
  S        17.2122458037       26.0370487561       17.1840703257
  S        20.1371118336       28.9239096558       17.1516835050
  S        23.0562661690       31.8499424459       17.1456827099
  S        25.9507119028       34.7825933081       17.1615287843
  S        28.9261053565       37.6429851759       17.1652169681
 Cl         8.0176439053       18.0107504553       23.1657793046
  S        31.8113090101       17.2700970596       34.7239979606
  S        20.1197784351       23.1462915759       40.6456487697
  S        23.0822100780       26.0597048208       40.6914504248
  S        26.0040265981       28.9883531498       40.6906698082
  S        37.6215781107       32.0794256039       14.3742629491
 Cd         9.4993048943       15.0628716508       27.0450384524
 Cd        12.8956744991       15.5458191794       27.2931091264
 Cd        15.7090410149       18.6336417246       27.4595323925
 Cd        18.6378990724       21.5634694069       27.4645725750
 Cd        21.5681460654       24.4811111050       27.4687404570
  S        28.9512523272       31.9540151729       40.6766395779
  S        32.0445049057       34.8084531055       40.6328460295
  S        25.7490256113       14.1788514430       14.1606751679
  S        34.8854511690       14.1892795753       23.0681325615
 Cl         8.0570089157       28.7884692037       34.0720730135
  S        28.8651107764       17.0969119586       14.1554536294
  S        20.1402051912       28.9025089277       28.8989506071
  S        10.6373787477       16.0725244223       21.5538988146
  S        14.2025450588       20.0110662155       20.0062842732
  S        17.1997517092       23.0933980998       20.1557386505
  S        20.1437976891       25.9901534334       20.1211750875
  S        23.0604928339       28.9212203520       20.1030778130
  S        25.9756526735       31.8642254764       20.1038706267
  S        23.0950370845       31.8624315713       28.8671052834
 Cl        25.0323759620       14.4881318531        8.2871896452
 Cl        28.7393945529       16.8844907761        8.6273918297
 Cl        31.7097085214       20.0423670094        8.3845623461
 Cl        35.1054138423       23.3375427598        8.5755986496
 Cl        37.6484730345       26.9281121172        8.4103104998