     691
 i =      168, E =    -17261.3623661979
 Hg        19.9599310448       26.2236467470       19.9167854076
 Hg        23.1062904946       29.3530635488       20.0071120856
 Hg        26.3502302619       32.1062612524       19.9192159314
 Hg        29.3052032358       35.2898907258       19.8830786793
 Hg        35.8275352932       22.5502024855       30.5202157988
 Hg         8.7120352090       13.4472938398       20.6340580774
 Hg        10.3437912982       17.0926130838       19.6179131914
 Hg        13.7649601244       20.0301056399       20.0005324464
 Hg        16.7923071004       23.1430273894       19.8858685088
 Hg        23.1629688816       26.2263551576       23.1896224995
 Hg        26.2929100638       29.3984772433       23.2578441724
 Hg        29.4193891153       32.3581447225       23.1539801275
 Hg        31.8519725380       34.8096928064       21.9917617837
 Hg        23.5195504706       28.7036057189        7.6733555432
 Hg        16.7401173347       13.6164110883       17.0137721683
 Hg        10.7563119491       13.5420982933       23.4940091570
 Hg        13.5411280880       16.8258820644       22.9041815712
 Hg        16.7917355736       19.9517998807       23.1422463361
 Hg        19.9261722458       23.0455630402       23.0935368691
 Hg        26.3487581171       26.2332811899       26.2433674809
 Hg        29.5017198535       29.3965924557       26.4510724532
 Hg        19.9140826373       16.7474785031       16.7423581323
 Hg        13.8919665223       19.8216440443       13.6730725798
 Hg        13.8775324036       13.4462693197       26.4439018784
 Hg        16.8208734137       16.8310969360       26.1221096597
 Hg        19.9135963870       19.9531679102       26.2365959312
 Hg        23.1546709334       23.0743457959       26.2365240323
 Hg        29.3428647928       26.3709494809       29.4264264768
 Hg        31.6176554556       29.3819167519       29.6887862615
 Hg        13.4721034098       34.3564199071       22.4497717669
 Hg        35.3595371225       25.7863415792       28.5155611179
 Hg        23.0370057356       13.8012069929       23.0619556090
 Hg        13.8295096591       10.4254768668       29.1361134250
 Hg        16.4856413160       13.6551792776       29.5123694253
 Hg        19.9161878445       16.7952333783       29.3207201702
 Hg        23.0865364152       19.9462176830       29.3149227501
 Hg        26.2355456231       23.0907624831       29.3983554558
 Hg        29.4747021732       13.5925250382       16.5903028195
 Hg        26.2145144462       16.8856866081       22.9998635852
 Hg        32.4097670811       19.8056717939       26.2117650266
 Hg        26.2357182196       19.9033200415       19.8860355823
 Hg        22.8277827075        7.7464985850       16.9891718197
 Hg        26.3235488526       10.5462749246       16.8003127999
 Hg        19.8842309904       13.6060413833       32.4491494983
 Hg        23.1257058915       16.6621097301       32.2000515566
 Hg        26.2522230601       19.8259024439       32.3784473824
 Hg        29.5522257569       23.1431088126       32.1156101544
 Hg        23.0335619765       23.4485895095        7.6327720430
 Hg        35.0246364650       29.1462079787       25.7678259234
 Hg        23.1985328595       13.8491623298       35.5500665967
 Hg        26.4240400966       16.8588052590       35.3182786203
 Hg        28.6500891832       19.3283545108       35.3674348621
 Hg        30.4149677793       22.7409567490       35.8349799384
 Hg        23.3202896919       10.7736097692       13.5090387664
 Hg        23.0238970376       20.0038894330       10.6307789193
 Hg        13.7885397431       10.5432987138       23.1552372325
 Hg        29.0631802613       23.2056671698        7.7537641400
 Hg        31.9806026860       29.0993841901       16.6600726136
 Hg        16.6537774303       19.9066825886       10.8649952788
 Hg        26.3903556370       13.7406916319       13.5848676231
 Hg        19.9664078492       23.0360698587       10.5834817465
 Hg        13.7666838644       13.7194471101       13.9585892333
 Hg        23.0931361285       16.8003935115       19.8779877466
 Hg        26.6430324584       16.7403746709       10.4351781801
 Hg        26.0548508391       16.7475444187       29.4019376564
 Hg        32.6611037897       22.9776652898       16.9684921554
 Hg        16.8133978945       10.2234789437       26.3493307733
 Hg        32.3649065143       13.6258700780       19.8657029031
 Hg        35.2677880088       17.1639015017       20.1506706430
 Hg        19.9777494385       19.9297862516       19.9407096588
 Hg        16.7958263799        7.6341799377       16.6508276895
 Hg        13.9092672782        6.8864250093       24.2429942347
 Hg        16.7273177727       16.9461208296       13.6600979457
 Hg        19.2613243883       14.3517072764        7.7389500438
 Hg        10.8303881971       13.8125766471       16.9934764401
 Hg        16.8877116231       16.8508012809       19.9713007483
 Hg        29.0812233765       23.2185891462       13.6600584078
 Hg        29.0806409526       29.3254931301       19.8803066670
 Hg        32.8018123657       16.7897773715       16.6741390437
 Hg        29.3608293678       19.9314995097       23.0471283407
 Hg        20.1411973535       13.5003684843       13.6235364871
 Hg        29.2764503748       20.1091039134       10.5552528757
 Hg        17.0922445325       22.7788426207        7.6515024248
 Hg        13.2918346092       29.8968699714       10.9143204868
 Hg        20.1915329913       35.8780941777       12.7685679699
 Hg        13.7130131466       16.8456184773       16.9551398667
 Hg        22.7468575399       29.5186085025       13.5507458377
 Hg        26.3131189587       32.2551105710       13.7456712371
 Hg        23.0553520132       23.1072556147       19.9361525498
 Hg        13.4589656812       26.3643778801       13.4877710897
 Hg        16.4774101222       29.4728601436       13.6244933096
 Hg        19.6464447643       32.2193670804       13.5706961909
 Hg        23.7396369256       35.3906704150       14.5027408012
 Hg         9.0352185966       19.5918594495       13.6076241048
 Hg        10.1378362269       23.1625772312       13.4565231361
 Hg        16.8215346696       26.3078600853       16.8976409979
 Hg        19.9098844395       29.3910506506       16.8534517873
 Hg        23.2099328051       32.3923086854       16.8070507453
 Hg        26.3004859446       35.2833174227       16.6257129376
 Hg        35.0521542503       23.1444995648       20.0494889778
 Hg        10.5015359055       20.0870537476       16.9423684546
 Hg        13.5009712916       23.2220882454       16.6156235685
 Hg        20.0343253377       29.2309432203       23.0625254335
 Hg        23.1954122776       32.5141089652       23.2272216156
 Hg        25.8975677239       35.2645487286       22.8897466497
 Hg        35.2686459252       22.7895390244       25.9932134761
 Hg         7.2993794064       17.1342596376       22.6541036944
 Hg        10.6117761534       19.9670646267       23.0909471054
 Hg        13.6443466688       23.0592608317       23.0816356605
 Hg        16.8515619546       26.1240704607       23.0910408997
 Hg        23.1957885751       29.4387032351       26.3839683622
 Hg        26.3458163525       32.7022314513       26.3877864143
 Hg        29.3703069346       35.9953457930       24.2250262314
 Hg        29.3915061515       23.0612619796       26.2125771549
 Hg        10.9400247488       10.7333456114       19.6992971982
 Hg         7.6701096350       14.1844768236       24.9275624073
 Hg        10.5124782877       16.7176187672       26.0481163548
 Hg        13.6458750463       19.8467338964       26.2438747021
 Hg        16.7234328925       23.0807205641       26.2974611271
 Hg        20.0158996386       26.1378796410       26.2223072250
 Hg        26.2321553188       29.6413990078       29.4873051347
 Hg        29.1538258624       31.9646784225       29.1232820761
 Hg        26.2428296077       16.7627031951       16.7972785425
 Hg        19.4708556814       10.5750726975       29.6564866437
 Hg        11.6494565965       13.3006481826       29.2504949718
 Hg        13.4626873081       16.4520127636       29.5665516194
 Hg        16.7346522464       19.8603676115       29.4042733858
 Hg        19.9102229937       23.0232747739       29.3151532969
 Hg        23.1311534062       26.1942393332       29.3492827014
 Hg        29.3870095400       29.2199415353       32.2333867721
 Hg        26.2996979619       13.6304648140       19.9568901482
 Hg        31.9274817703       26.4179873855       13.8770894768
 Hg        13.5504088320       12.6317254146       32.3731697549
 Hg        16.8489389870       16.6610548770       32.5359591775
 Hg        20.0032550819       19.9688130935       32.4588235065
 Hg        23.0672861093       23.0649824298       32.4099542488
 Hg        26.3438807395       26.5742855189       32.5986650512
 Hg        32.5343512009       26.2340414222       26.1892119714
 Hg        23.1540524530        7.7688463919       23.0758754300
 Hg        25.8260025128       10.4656997682       23.0435156920
 Hg        17.7448155438       14.2365836880       35.5184322175
 Hg        20.2532915324       17.0830994066       35.4599835094
 Hg        23.2741936239       19.9512436271       35.4456863263
 Hg        26.2359394094       22.8634700002       35.2819505308
 Hg        29.3779696431       26.0922907891       34.5606222002
 Hg         8.0680111928       31.6912805007       20.9980041693
 Hg         7.6137542785       29.2087930777       23.1784252770
 Hg        10.7494365569       32.1143046309       23.3542782280
 Hg        29.5727656136       16.8198948208       13.5827672164
 Hg        32.6702936829       19.8266924892       13.4641651405
 Hg        26.1406551221       19.9231048934       13.6761609642
 Hg        26.3295173859       11.0038555746       29.2329181284
 Hg        25.2478404653       20.0309628780        7.4001171150
 Hg        16.8899159695       13.6628360067       23.1812201391
 Hg        34.0589458794       23.3942624126       13.6296418051
 Hg        26.0880852082       26.5099934464        7.6960399733
 Hg        32.2574587502       16.6232508801       29.2743821330
 Hg        35.8891384509       26.1867905554       22.9175307043
 Hg        32.1017890733       32.1163802438       19.6229098165
 Hg        22.7801422469       16.7562049050        7.8001677781
 Hg        26.1572234106        7.1512262341       20.0288238743
 Hg        29.6536693944       10.4841964741       19.5432391412
 Hg        35.3221505622       13.7184337538       23.1120210564
 Hg        29.5075113647       20.1313074249       29.4137750306
 Hg        29.2281530244       13.8609377390       29.2404537151
 Hg        29.3206500494       13.9159563183       23.1672377434
 Hg        35.2771081537       16.6854687042       26.3613471256
 Hg        26.3770287998       23.0912032762       10.7980130067
 Hg        29.2595789062       23.0230949031       19.9358729665
 Hg        31.9252483645       23.5156976674       10.7479665008
 Hg        17.0846010945        8.2380432174       29.4385919570
 Hg        32.5306651633       25.8200744164       19.8649409976
 Hg        36.5260686351       19.9965243827       16.8998678124
 Hg        10.8173737759       29.4956259886       13.9174720088
 Hg        13.5498325730       31.7057846012       14.0402684281
 Hg        16.9888518101       35.1774312535       14.6894569473
 Hg        32.5372086625       19.9232936069       19.8660062456
 Hg        23.0641135444       19.9146748698       16.8014679913
 Hg         8.8159239899       26.3548019704       13.2372294283
 Hg        13.5067010693       29.2060401915       16.6582017713
 Hg        16.7655432668       32.5386741782       17.0525879821
 Hg        20.2958415753       35.2767485855       17.0189124665
 Hg        29.0526980489       11.0221259242       26.3767615508
 Hg         6.5630096018       23.2097069039       16.9001950373
 Hg        10.3000878325       26.3527703487       16.5732278039
 Hg        16.8761917085       29.4921181569       20.1799068938
 Hg        20.0352286395       32.4161068666       20.0039873451
 Hg        23.2784027134       35.5706379551       19.7142188674
 Hg         7.9753390773       20.0122098773       19.9512854027
 Hg        10.5128170415       23.1842315909       19.7902710392
 Hg        13.6736238351       26.1808080978       19.8947021939
 Hg        20.1301745121       32.5377269902       26.0540897127
 Hg        23.2313485810       36.4908725845       26.1769476552
 Hg        32.5024112415       23.0311860642       23.1025718227
 Hg         7.7569831469       20.2263032294       26.0613256312
 Hg        10.6116873469       23.1750727164       26.2396495889
 Hg        13.6299381140       26.2639590272       26.0932351478
 Hg        16.8665219978       29.2984426343       26.0823301796
 Hg        23.1211070158       32.8340691277       29.5963105182
 Hg        26.2505276853       34.2230047005       29.7957466969
 Hg        23.0803882586       16.7976276039       13.6279612429
 Hg        19.9466528945       23.1503833027       16.7989251899
 Hg        23.0770293680       26.2667503051       10.6580293985
 Hg         7.8876848665       16.9198703487       28.4042693904
 Hg        10.7768053422       19.6583199010       29.4975676867
 Hg        13.4837511430       22.7897992228       29.4595279038
 Hg        16.9261403523       26.2535277700       29.4147983275
 Hg        19.8075455216       29.0801923263       29.3377512016
 Hg        22.7220166561       12.5988535965        7.2665972584
 Hg        26.0968132090       13.7020559142        8.4594412445
 Hg        13.4559398674       19.7486869944       32.2340928597
 Hg        16.7821766774       23.1572946215       32.3426604055
 Hg        19.9085904476       26.3495261786       32.1866970261
 Hg        23.0172134099       29.3925412218       32.3706854761
 Hg        29.0734014379       18.9241548937        6.9510677927
 Hg        31.6268015121       21.1083686510        8.0536732434
 Hg        23.1923157888       13.9011335917       29.3806110027
 Hg        14.1495632380       16.9213514462       34.9170597322
 Hg        16.9021336705       20.1768496788       35.3336840449
 Hg        19.7493979319       23.0772193383       35.3863539946
 Hg        22.9136522556       25.6530764345       35.4499027707
 Hg        24.1932788019       29.2822577719       35.9639613476
 Hg        13.8880622970        7.6117741077       19.9451611584
 Hg        19.9409561462       19.7946840402        7.6408172865
 Hg        19.8041720624       26.2982750720       13.6256414181
 Hg        23.0817283742       26.3435027660       16.7547629279
 Hg        19.3124522316        7.6551894789       14.4901946979
 Hg        26.1319660481       26.1976551609       19.9909111463
 Hg        16.7171963273       10.7807695524       19.9006684573
 Hg        29.4084209115       26.2548846895       23.0404750855
 Hg        11.0202113781       16.5288959190       13.9566990950
 Hg        19.9223869906        7.4742586382       19.7555413957
 Hg        29.2860808956       13.7647732673       10.7640205356
 Hg        26.1079205531       13.7076682217       26.1376345299
 Hg        26.1332341115       23.0380361052       16.8017003192
 Hg        29.4052149639       16.6884134220       26.0568533238
 Hg        20.3187506677        6.9135991693       26.3867755008
 Hg        19.8385875253       10.6038652526       16.7895484278
 Hg        19.9071187203       16.7965956314       23.1197171108
 Hg        20.0564458626       26.1573009499        7.6122827432
 Hg        35.3816782830       19.2357744584       28.4757006079
 Hg        26.3024827960       29.4127068953       16.9330041918
 Hg        23.2698010442       11.0254631726       32.4106748407
 Hg        22.6467922991        7.2412121336       12.4546247110
 Hg        29.4611674340       11.5428851171       13.3153949790
 Hg        32.0239327405       14.0319171913       13.8724150828
 Hg        34.3796493943       16.9107678793       13.3007706470
 Hg        35.6479970007       19.7365645252       23.3913275487
 Hg        29.2869159237       16.6944663415       32.2429714084
 Hg        14.1976585752       35.3875543495       18.1768860979
 Hg        29.2685865612       26.1128389619       16.8914838002
 Hg        29.4370674064       19.9490907115       16.6910473199
 Hg        23.1915814225       13.4863565731       10.9497989252
 Hg        32.5514624773       29.5883372448       23.4844725753
 Hg        23.0927518944       10.3809666713       25.9274346239
 Hg         6.9145662562       29.1663272770       18.7862771336
 Hg        13.5836624391       32.2924073169       19.6081711318
 Hg        17.1966072385       35.7423566304       20.3786137125
 Hg        23.1041764310       19.9840196229       23.0924761257
 Hg        23.0917053776       13.6538772241       16.8089504827
 Hg        29.1444181249        8.9150248163       23.1942808632
 Hg        32.1294843021       10.9151635016       23.4158763699
 Hg        16.6185648015       13.7430452324       10.8687902556
 Hg         7.7189202697       25.7890421670       20.1723056738
 Hg        10.5771600672       29.2812062788       19.9091248636
 Hg        17.1068853066       32.6880626233       23.4366867288
 Hg        20.0323633094       35.0702892096       23.0943660208
 Hg        13.5591136247       23.0940229630       10.6993930159
 Hg         7.4578839117       23.1678661089       23.2994632220
 Hg        10.8574638990       26.3015159391       23.1889777013
 Hg        13.6226127778       28.9985410381       23.0988085671
 Hg        19.5735952199       34.0459901139       29.3478792504
 Hg        25.8687779692        7.7111914404       14.4919035836
 Hg        35.9882184672       13.6777906130       18.7852874475
 Hg        16.5894746784       26.1987214253       10.4733294083
 Hg         7.6340616647       23.6891157312       28.5926981368
 Hg        10.7526111675       26.3574356384       29.2749901788
 Hg        13.7175500805       29.2350547283       29.0964164876
 Hg        16.5170496292       31.9657334934       28.9779548982
 Hg        32.2649458963       23.2569729092       29.5138816314
 Hg        23.2010325666        9.0066843236       29.3450957217
 Hg         7.1474618258       20.1221439489       30.3112164122
 Hg        13.7347536936       26.3683844797       32.1737566178
 Hg        19.4506867394       31.9499972973       32.1976109518
 Hg        17.3980065357        7.5864664266       22.9360693183
 Hg        11.5247551370       22.1575032277        7.9296172668
 Hg        12.6562663458       20.2492767260       35.8936907609
 Hg        14.4351168266       23.6974356447       35.2785338285
 Hg        16.6163511638       26.2137840719       35.2963043854
 Hg        19.8897661914       29.1723563442       35.2917511245
 Hg        14.0857703753       25.0358117238        7.4505316690
 Hg        19.9205032083       19.9429000300       13.7275494058
 Hg         7.6661123120       26.2282282810       26.4429833862
 Hg        14.0304894098       13.5994441203       19.9950623929
 Hg        29.2139160018        8.0294963143       17.2357272043
 Hg        34.8066582560       11.1777272449       21.0062898393
 Hg        19.6663956226       29.5830443500       10.7506288098
 Hg        13.8012248638       32.2231639247       26.0573302167
 Hg        19.9123282806       10.5430097434       23.1421244767
 Hg        13.8476268181       19.8731356586        7.4831148867
 Hg        26.2396180676       23.0760394080       23.1235608248
 Hg        34.1116310550       29.1304328756       19.8136291540
 Hg        22.9979349615       23.1341221789       13.7274088447
 Hg        29.0853628260       29.2569626438       13.7736668323
 Hg        16.6140662896       10.7439141224       13.7768342867
 Hg        19.7925876638       16.7754757583       10.6911656514
 Hg        11.0796584006       19.5874534020       10.6590241722
 Hg        16.7747095578       23.0937933480       13.7591069103
 Hg        16.8389985635       20.0199236160       16.8706398738
 Hg        19.9851952772       13.6520177903       19.9415448089
 Hg        19.9789016318       13.4914813283       26.3890962067
 Hg        23.0422086992       16.8679555992       26.1748217570
 Hg        26.3137958470       19.9046677839       26.2635183294
 Hg        29.4137854915       16.7650329807       19.7601830256
 Hg        16.8286230537       16.6239946249        7.7388330058
 Hg        16.3638322621       29.2528452510        8.4954486150
 Hg        26.2012404846       26.0839795731       13.5817049000
 Hg        23.0864126491       10.5060501225       19.8987815012
 Hg        32.0970441518       16.6819571890       23.0709262508
 Hg        26.2319280296       29.3334962886       10.7664518380
 Hg        19.8967954673       30.0682670991        7.0444123448
 Hg        11.3674741402        8.0610318326       22.0739913187
 Hg        21.9391913550       31.7627896354       34.8357954486
 Hg        20.8195236849       11.6257702300       35.2617387726
 Se        31.0623422663       15.4444242385       11.8920250934
 Se        34.6337691610       30.9556782360       24.0622923519
 Se        30.8133438516       21.6064321552       12.2123550149
 Se        12.3239429293       34.5754151605       19.8088137703
 Se        18.3402599700       24.7124217110       15.2802178697
 Se        27.6256211703       12.1894907120       24.4924699087
 Se        21.4925791214       21.5146452735       15.2784795394
 Se         9.5332263820       17.7201179417       11.9996243486
 Se        15.1794082980       18.3285240074       24.5885797160
 Se        31.0363657591       15.2439918607       18.2028536044
 Se        24.5621889193       12.1909860103       21.4626556415
 Se        30.8667715199       24.5413185863       21.5250855024
 Se        18.3377666043       21.5442942993       24.7011000884
 Se        18.9089662621        8.5491415349       31.1150918073
 Se        18.6523419316        8.8619430448       24.8170493820
 Se        15.2689058294       21.4626708886        9.1081114686
 Se        18.4027236723       18.4232017816       21.5632859773
 Se        21.5083126625       12.0875781258       18.3516388059
 Se        24.6281459425       30.7596198678       15.2103969273
 Se        12.1931528147       33.9274071782       24.6888437388
 Se        30.7674319238       12.1777754070       21.5037608534
 Se        21.5629378337       24.5892572577       24.6478839794
 Se        18.4768389320       30.8200571146       27.6329123259
 Se        13.9612378221       26.2522431905       34.7821111619
 Se        24.6662062112       27.8145161692       18.3946190197
 Se        12.0858770103        8.6314359027       24.4467874750
 Se        30.8005015664       18.3248918693       27.7743305781
 Se        30.9225761908       21.4591139671       24.6475792795
 Se        15.3559650578       27.7091168106       27.6668491742
 Se         9.1371023155       12.1880760918       18.3827644440
 Se        27.5203528541       21.4732152350        8.9642906160
 Se        24.7304795640        8.9627074334       18.4078456212
 Se        18.4315214559       21.5613980147       18.4033839226
 Se        18.5080201316       30.9602751234       21.6899456042
 Se        18.4639366131       15.1863727751       24.7462837106
 Se        12.1323629899       21.4215086733       12.2650810633
 Se        30.8880108565       18.3713601782       21.4158900320
 Se        15.3154413231       15.3265505746       15.4013529430
 Se        27.8791048407       15.3023988331       15.1905855447
 Se        18.2767632218        9.0567551075       18.3869106233
 Se        28.0170607306       31.0411766498       18.1688788833
 Se        27.7604575572       27.8768176459       27.8707462917
 Se        12.1995924029       18.4331640600       15.3904538495
 Se        30.9439978286       18.7352710150        8.6667840157
 Se        14.9525955538       12.1176822142       12.2064086311
 Se        18.3552523467       27.8635203557       18.4815673452
 Se        21.5404241673       12.1512949194       24.6103853504
 Se        24.6953701818       15.1992875315       18.3777727426
 Se        21.5785927636       30.8960217255       18.3973788205
 Se        24.7465060081       24.6559509830       33.9025260653
 Se        21.4581948953        8.9801344614       21.4643742923
 Se        27.8543266159       24.6612041505       24.6379452707
 Se        15.2917486121       27.6959263936       21.4928339093
 Se        15.4206919865       11.9688807787       24.7192278334
 Se        21.5133031782       12.2028009295       30.7984196539
 Se        24.8436217039       33.8839607419       18.3948217236
 Se        27.8370791063       18.4242525479       12.1321363020
 Se        27.8638611898       28.0716818611       34.2172937513
 Se        12.0982193677       18.1828821972       27.7344942225
 Se         8.6890889694       18.1743276763       30.5993175380
 Se        24.6357845732       24.6122213360       21.5698781962
 Se        23.3418586467       11.1060296417       34.9963296582
 Se        27.7457523291       31.0402759737       31.1300080602
 Se        15.1853821792       27.7222541114       15.2263790248
 Se         8.9470424174       18.4064461773       24.5432586296
 Se        34.1996609893       15.1152814042       15.0851062445
 Se        24.8909180949       15.0451526035       31.0611543976
 Se        24.7318155275       24.7068457373        9.1767138671
 Se        15.5262012694       14.9487791798       34.1359389235
 Se        27.7432776543       21.4646809345       21.5222495320
 Se        24.5301414696       12.1700088070       27.6658488999
 Se        12.1058197190       18.3968075705       34.2974019989
 Se        27.9316460693       21.3917778194       33.8741783897
 Se        18.1574495104       27.8240170593       12.1016588566
 Se        24.6554212835       18.3724389354       27.7632499474
 Se        18.3574066699       21.5274922346       12.1860578696
 Se         8.6589187090       30.9878405426       18.6251589641
 Se        15.7598915182       33.7269805359       21.3640587889
 Se        21.5461449052       15.2037634009       15.2101062228
 Se        30.8320272292       24.5375970380       15.3653451687
 Se         8.8714121571       24.5752023148       18.1824190724
 Se        21.5490494913       21.5380913510        8.9753539918
 Se        19.4038548589       31.8675682495       34.8277867924
 Se        15.1531466880       21.5766715327       33.8946428229
 Se        30.7859046711        9.2754881607       25.0841759554
 Se        18.2221946049       30.9322483430       15.3890434087
 Se        24.6023016635       18.2792145961        9.1364791087
 Se         9.0632349812       21.7016842818       21.5959293413
 Se        12.2995419614       12.1254793172       21.5566549074
 Se        11.8223611965       21.4983492143       31.0899988687
 Se         9.0908955542       24.5555179877       11.5482474996
 Se        34.0913464249       24.6796181626       24.5527171008
 Se        31.2239869874       31.0219569194       27.7660817093
 Se        12.3365018414       15.1838094088       24.7150406886
 Se        31.2075086365       24.3895568086       34.1015197608
 Se        12.2314661474       24.6376336364       27.8179839147
 Se         9.3460669026       15.7416199849       21.7081287398
 Se        12.0799844906       18.4691399102       21.3907023977
 Se        21.6438301469       33.9592126453       15.1882500472
 Se        27.6674291809       24.5863418915       18.4332081975
 Se        15.3075098313       21.5847664226       21.5443948560
 Se        11.9890848625       27.6599177493       18.3360983295
 Se        12.2363899371       15.3519050734       18.6293805974
 Se        34.7623197489       11.0244416680       23.5332573193
 Se        12.1290662362       21.5183647840       24.6998673838
 Se        18.4185975574       24.6259979287       21.4826249399
 Se        34.0752514917       27.8747383594       27.8111255591
 Se        24.6250398347       15.3485292510       24.5778950668
 Se        18.3637729033       15.1865370365       12.3278097205
 Se        27.9303001049       24.8950386820       11.9599646878
 Se        27.7705566745       33.8947628703       21.5166323534
 Se         9.0434040935       27.6680758516       21.5787878929
 Se        21.4435921969       24.6877143649       12.1617398798
 Se        31.7835144354       29.0460041857       14.0410308870
 Se        24.8617283373        8.7742648230       24.8059595322
 Se        34.1733907917       18.7509403505       11.6488623535
 Se         8.8252224904       28.0776423173       15.0986412780
 Se        24.4486483219       33.9922726574       31.4915700348
 Se        15.3383824058       31.4286348029       12.2831141846
 Se        17.6722816162       33.5574932470       30.9266189693
 Se        15.2350102689       30.7194999356       18.3873808651
 Se        21.3677047636        9.1489068888       27.6437644104
 Se        34.0650127117       21.3432643882       21.6319985680
 Se        12.1630133468       30.7479631749       21.5326870088
 Se        15.1960349760        8.5872311352       27.7607604436
 Se        18.4371203964       34.3227821467       25.0017779515
 Se        31.0663016095       18.4262697578       15.2065320650
 Se         8.1440090302       26.2444538548       29.0947272618
 Se        24.7003111972       30.8749891210       21.6110048490
 Se        15.2249651786       24.6290038915       24.6524279833
 Se        21.5425678587       21.5431012959       34.0417202065
 Se        27.5450695763        9.1916027155       21.2876904521
 Se        18.4631317591       27.6777178772       24.6148992737
 Se        11.8247558963       15.0572033143       31.0224579015
 Se        24.6269275724       31.1102575251       27.8835225863
 Se        15.1990834948       18.2085632012       30.9349750909