    1847
 i =      152, E =    -72273.1174133609
 Ga        37.5148286582       20.9547622982       42.3091318836
 Ga        26.5084164443       37.3459884904       42.6459489342
 Ga        34.6147366787       21.1088154659       29.2060322530
 Ga        37.4188976299       37.3386799141       31.9547639938
 Ga        31.9572109579       21.0462622451       21.0543384732
  P        41.2822446891       19.7541071997       27.9395447829
  P        41.2806376424       19.7192691011       33.2767364723
 Ga        31.9729788662       29.2308892764       34.6216794419
 Ga        42.6520162147       21.1093130771       21.1133714102
  P        41.4476035191       19.4660943097       38.8192724629
  P        33.2875727066       38.5913242233       17.0064538768
 Ga        31.9434820970       21.1049603538       26.4987560104
  P        33.2404837885       38.5590411600       22.4410218233
 Cl        41.4714794063       22.8220943589       14.5371725197
  P        41.3770850327       22.5318316555       19.8043391563
  P        41.2689472110       22.5078691086       25.2344486387
  P        41.3174209960       22.3967350848       30.5858899452
 Ga        37.3388965972       37.3464852755       26.5121700193
 Ga        31.9467868815       21.1109576821       31.8850965250
  P        41.2869180189       22.3513877909       35.9504795336
  P        41.5423736128       22.1303382460       41.4749651330
  P        33.2753925684       38.6602197875       27.8503565265
 Cl        43.9557923816       25.1401068476       25.1275768048
 Ga        34.6218069362       21.1086056073       34.5509487167
 Cl        41.3498665052       25.5515067347       11.7376487453
  P        41.3866058262       25.2508241700       17.0746300045
  P        41.2763719229       25.2096195870       22.5466266451
  P        41.2664974460       25.1843942132       27.8549310009
  P        41.3539082161       25.0553512180       33.2352775401
 Cl        43.9836111494       33.2348305724       27.7185338017
 Ga        42.4878409761       21.1273823794       26.5889246040
  P        41.4359101891       25.0155195114       38.6669949770
 Cl        40.9843402210       24.5374616280       44.2950888905
 Cl        40.9442210493       28.4680651649        8.7276656888
  P        41.3759091401       27.9930978431       14.3527925437
  P        41.2552424361       27.9357223517       19.8154366870
 Ga        31.9611539171       29.1645141307       39.9967903048
  P        38.7159378692       36.1632645672       14.3253217893
  P        41.2728939917       27.8809057152       25.1709254052
  P        41.3137158503       27.7819569487       30.5323510245
  P        41.4318819098       27.7534191283       35.9406785178
 Cl        41.3517763776       27.4536288514       41.3363399870
 Ga        29.3929395204       12.8368364492       42.5661531798
 Ga        34.6952132277       37.3357868727       34.6842000982
 Ga        31.9653979950       21.0445232217       42.4019029100
 Ga        34.6966016843       21.0518895742       39.8353994558
  P        41.4775329066       30.8695765353       11.5394315732
  P        41.2481970071       30.6522459716       17.0850817694
  P        41.2227400471       30.5848042240       22.4647212314
  P        41.2923290993       30.5443783122       27.8034612766
 Ga        34.6818660238       21.0457079150       18.3803219940
  P        30.4910379190       19.7896544454       11.6493116703
  P        41.4008275675       30.4704652169       33.2116530275
 Cl        41.4395458024       30.2249770063       38.5359336458
  P        35.9686259854       27.8883017043       14.3961622918
 Cl        43.9086799408       28.1410775985       17.3063135829
  P        41.4301108278       33.5222373433       14.2009483492
 Cl        44.3964313085       32.7349757138       32.6980177901
 Cl        40.8834416981       44.3758907760       24.5531755456
  P        41.1974833932       33.3217333558       19.7522293109
  P        41.2902804770       33.2715610517       25.1077455207
  P        41.4065554456       33.2263142871       30.4779384221
 Cl        41.4634981904       33.0147946853       35.7279888234
 Cl        30.1042372026       17.4051397557        8.7551478948
 Zn        31.9596540971       31.8860517089       10.4348371280
 Ga        26.5830564341       40.0059290332       12.9296965799
 Ga        39.9065458466       26.5693883750       23.8532512963
 Ga        34.6067547188       23.8522620911       10.3309542490
 Cl        41.3641791283       35.9326871730       17.1334640381
  P        41.2363670015       36.0342581269       22.3623229022
  P        41.4118463085       35.9616045887       27.7626619568
  P        38.5877174545       36.0017365508       19.7209822761
 Cl        41.4529951386       35.7804964283       32.9820199011
 Ga        26.5605865431       39.9972170848       18.3743887920
 Ga        29.3939559321       40.1418262065       10.3587979736
 Ga        34.6250020237       23.7766439292       15.6687107818
  P        41.3985498273       38.8855046513       19.4876307019
  P        38.6479605217       35.9949975218       25.1310128981
  P        41.3676301119       38.7348826207       25.0203788741
 Cl        41.4222619484       38.5937928489       30.1925378069
 Ga        26.5072722789       39.9163756445       23.7808735223
  P        38.7275322740       35.9859930686       30.5285672128
 Cl        35.8422158216       28.1022459800        9.1488639500
 Ga        37.5906822373       39.8318616582       18.5412058154
 Ga        34.6204220275       23.7666164581       21.0955519494
  P        41.4658961039       41.5532477774       22.1387639851
 Zn        42.6410732191       21.0505214863       31.9555253138
 Ga        34.6101969633       23.7814731416       26.5011404372
 Cl        41.2670017595       41.4174311966       27.4579354411
  P        35.9421400574       27.8662387940       19.7653475340
 Ga        42.3225971998       20.9474940263       37.4371001699
 Ga        34.6184281626       23.8356914350       31.8968147125
 Ga        31.8968502471       31.8895110178       15.8074919706
  P        33.2981437261       38.6851441336       33.2895989414
 Ga        40.0832131947       32.0512260002       12.9320232036
 Ga        39.8458656406       31.9505106269       18.3829096468
 Cl        41.4959767510       17.3212540164       20.0519939775
  P        38.7315218132       14.3122821256       30.6402712925
  P        35.9539414339       30.6473842963       11.7899321763
  P        41.3831076712       17.0628249026       25.2348223063
  P        38.7728156304       14.2659647070       36.1555730181
  P        35.9342432372       30.5749157973       17.0866615458
 Ga        29.2227539199       34.5431853272       42.7352720609
  P        41.2813822505       17.0595897686       30.6356105250
 Cl        33.0353824446       38.6586270749       38.5944314285
  P        35.9305281964       30.5840329382       22.4810808092
 Ga        37.3522495164       34.6425791139       29.2405463345
 Cl        30.3452836866       22.6420187287        9.1812888644
 Ga        37.3296145675       23.8482721460       12.9912047560
  P        35.9383983483       30.5789665117       27.8782469244
 Ga        31.8972516028       31.8920534256       21.1262172765
  P        30.5823534157       22.4536202833       14.3992768396
  P        30.5826516605       22.4299251909       19.7522266205
 Ga        31.9572077105       21.0683118897       37.1887293760
  P        35.9914370312       30.5710253044       33.2828148829
 Ga        31.9044619310       31.8966967092       26.5241000770
  P        30.5837002429       22.4469500393       25.1488660886
  P        30.5758444453       22.4550274496       30.5517016100
  P        30.5912618181       22.4368212436       35.8890452517
  P        36.0259553877       30.5204764250       38.7061082833
 Ga        31.9717044806       31.9520958810       31.9569224399
  P        30.6024833113       22.4214824583       41.2132233060
 Ga        29.1676634846       15.6585070991       13.0090949557
 Ga        29.2305002757       39.9250336995       15.5892218127
  P        30.5247386461       25.2328452367       11.7479759267
 Cl        35.6409732023       30.1063859800       44.3182025000
 Ga        26.4943383088       39.9066519424       29.1640982938
  P        30.5777602398       25.1490071230       17.0869617752
  P        30.5792659933       25.1453571899       22.4674133485
  P        30.5686974019       25.1594860062       27.8508826982
  P        30.5780524292       25.1525194878       33.2503277602
  P        30.5755946584       25.1261284143       38.5638656053
 Ga        34.6828930008       23.7798935171       37.2636522250
 Cl        30.4925164521       24.9459100629       43.9434406083
 Cl        30.3940237897       28.0268379733        9.1269499210
  P        30.5740330915       27.8631644814       14.4453599695
  P        30.5809548949       27.8361127134       19.7921411446
  P        30.5729015417       27.8548256013       25.1751887096
  P        30.5921228802       27.8559459677       30.5668874700
  P        30.6027158019       27.8489874598       35.9337372898
  P        30.5719389580       27.7822297541       41.2808515244
 Ga        29.2397440109       15.6525968193       18.3896264456
 Ga        29.2138837659       39.8500224898       21.0415594997
  P        30.5783689401       30.5893836615       11.7646618245
  P        30.5657233842       30.5302396498       17.1366587361
 Ga        34.6223558535       18.3947575773       31.8865533563
  P        30.5533052874       30.5470664346       22.4733841258
  P        30.5689801498       30.5588903599       27.8803683968
  P        30.6085556441       30.5579224862       33.2564819506
  P        30.6119213507       30.5472358694       38.6560901442
 Cl        30.4216043015       30.3577121149       43.8731088233
  P        33.5208431260       38.8055865569       11.5563577608
 Ga        29.2095589600       39.9103614177       26.4792251413
 Cl        30.5386897798       33.2828072020        9.0982813760
  P        30.5915591605       33.2517141739       14.4323267102
  P        30.5667527582       33.2444216648       19.7692187539
  P        30.5603500869       33.2461751791       25.1733037593
 Cl        33.0038282282       14.3861069477       14.3950636057
  P        38.8936007356       11.5725894942       33.5209816524
  P        30.6023919355       33.2701077592       30.5784260220
  P        30.6047282666       33.2590177386       35.9837369937
  P        30.5446579771       33.1977044564       41.3869643573
  P        33.2525201196       14.2876274578       19.7640858031
 Ga        42.5550943102       34.6095932278       18.4660810064
  P        38.7295155979       22.3409658170       38.6679928323
 Ga        29.2420417559       15.7213409253       23.7920038602
 Ga        29.2417296108       39.9901733015       31.9411696783
  P        33.2870433095       14.3397959136       25.1814013026
 Ga        34.5356044728       42.5556559263       18.4053165443
 Cl        38.5215542765       22.2073426614       43.8197157083
  P        30.6355962538       35.9288563627       11.7367120475
  P        33.3118740316       14.3958273591       30.5868898051
 Ga        34.6319938980       23.6935274405       42.4026319410
 Cl        38.2046754196       25.7433011157        8.6442299365
  P        38.6702622798       25.2281540489       14.3500103360
  P        33.3181451176       14.3732718690       35.9573355038
 Ga        42.5618726475       40.2311978412       23.6145912966
  P        38.6532254451       25.1822427505       19.7701701218
  P        38.5973288518       25.1635575995       25.1621430791
 Cl        27.4184422454       11.6767576957       11.6807592128
  P        38.6284391668       25.1392661527       30.5771244940
  P        38.6812349667       25.1153795546       35.9669134464
 Ga        34.6149153407       10.5116927549       34.6105330436
 Ga        42.6523870562       23.8346123092       18.3855531468
 Ga        29.2323587561       39.9992831681       37.3507243907
 Ga        31.9843879235       31.9444192828       37.3515196980
 Ga        31.9690534601       31.8789666822       42.6538060782
 Ga        40.0126774434       18.3827799181       21.1135679773
 Cl        41.3513589096       17.0315576192       35.9697122559
 Cl        38.6704705174       17.2256269517       17.2112676239
 Cl        36.0066752221       33.4651679042        9.2378064889
 Ga        37.3598782155       29.1493494321       40.0586140067
  P        33.5166285394       41.4092117400       14.1262009571
  P        38.6909491104       17.0342599503       22.4853600717
  P        35.9699228247       33.3023431375       14.4172110531
 Ga        26.5172026566       39.9826431984       34.6283757395
  P        33.2569995529       41.1927430077       19.7014480684
 Ga        31.9586266607       34.6077499560       13.1002809453
  P        38.6719894988       17.0371272735       27.8789238126
  P        35.9379453437       33.2741472124       19.7685334485
 Cl        33.2067789276        9.0398001046       25.2827462768
  P        30.5601921774       35.9461300484       17.0562543797
 Ga        37.3341607919       23.7729042369       18.3865270616
  P        38.6379333270       17.0263191776       33.2961147946
  P        35.9411489816       33.2821264042       25.1897379407
  P        27.9289017931       33.2294049683       11.7980363029
  P        30.5374785236       35.9069544079       22.4705986444
  P        30.5818186427       35.9470015203       27.8686839473
 Ga        26.4963322303       39.9986024156       40.0107011387
 Ga        37.3411513552       39.9939684374       23.7724268462
  P        35.9852407319       33.2898418203       30.5751609123
  P        27.8699265329       33.2439925002       17.0813800828
  P        30.6048847296       35.9798368236       33.2923419582
  P        30.5910118481       35.9570632408       38.7097087986
 Cl        30.1391785702       35.5561755345       44.3192671885
 Ga        31.8953055370       34.6005802118       18.4012803138
  P        36.0488289894       33.2587088383       35.9982940419
  P        33.2240036862       41.2545635294       25.0635523271
 Cl        30.7868181303       38.4557726760        9.1627530612
  P        30.6517285395       38.6631474131       14.2788468259
  P        30.5826589940       38.5509943500       19.7349145031
  P        30.5502411328       38.5705176445       25.1494761442
 Ga        31.8992163579       34.5970118674       23.8371779019
 Ga        34.6163889203       26.5692143945       13.0119433204
 Ga        37.4170470000       34.6172682184       34.6308757955
  P        30.5754236313       38.6609070327       30.5672063455
  P        30.5667361663       38.6749397821       35.9830370953
 Cl        30.2316396788       38.5289124885       41.4422911906
 Ga        29.2389827825       15.7394170010       29.2067161223
 Ga        29.3124893991       34.5413617321       10.5066366484
 Ga        31.9602300763       34.6221776176       29.2411076400
 Ga        42.4048963903       34.6866030635       23.7601327065
  P        30.8632505557       41.4681641461       11.4552402900
  P        30.6495957767       41.2360500504       16.9872116597
  P        30.5492517797       41.2201666695       22.4279376217
  P        30.5312772104       41.2761005046       27.8202804002
  P        30.5368292803       41.3778483371       33.2579334496
 Cl        30.2272104734       41.4821106845       38.4769974709
 Ga        31.9808321982       34.6333551111       34.6789310455
 Cl        38.6529776760       35.8461800068       35.8101698778
  P        35.9284918491       27.8636740112       25.1616882891
 Ga        34.4528880195       39.7566205054       15.3326921167
 Cl        30.7846497770       43.8110991959       14.4624591444
 Cl        30.6730457591       43.8150881937       19.7531692768
 Cl        30.5431782579       43.8259961734       25.0705475584
  P        33.5296254330       14.1741424372       41.3929462751
 Ga        31.9673702597       34.6081512749       40.0659292935
 Cl        43.8432457902       22.1877981035       38.4880372936
 Cl        30.3901281865       43.8879141433       30.3879176221
 Cl        29.9803896515       44.4437551984       35.4437423137
 Cl        28.4201192259       12.0876066506       44.2751191640
  P        27.8551801808       33.2298422980       22.4676561686
 Ga        34.6787357634       18.3785318019       37.2486981775
  P        27.8803504992       33.2493406841       27.8545581940
 Ga        37.3546971777       40.0069473330       29.2193009094
 Ga        34.6146837587       39.8492129304       21.1034290359
  P        27.9209619458       33.2544575369       33.2765144764
 Ga        31.9048101319       29.2287886181       13.0972640783
 Ga        26.5778608946       42.6444021360       15.5842895456
  P        27.8850126377       33.2614017757       38.6639876207
 Ga        39.8972410759       31.9650159575       23.8448561645
 Ga        34.6209427060       26.4879824319       18.3986865788
 Ga        31.9413662536       29.1687992229       18.4566580510
 Ga        31.9043435523       29.2164612502       23.8328652375
 Cl        32.9847270751       17.2532841276       11.5967962005
  P        33.2642630988       41.3774278394       30.5360538657
  P        38.7299549604       25.0066681029       41.3722367459
 Zn        26.5738807884       42.5768503087       21.1110330809
 Ga        31.9508856572       29.2262791005       29.2329217111
  P        33.2621021998       17.0034956792       17.0224674171
 Cl        43.8218918106       30.7908023709       14.5602077566
 Ga        29.2269645123       15.7253739776       34.6024259628
 Ga        40.0007008809       31.8850453237       29.2212398448
 Cl        43.9283455661       30.4878863619       24.9583102565
  P        33.3015953937       17.0216691038       22.4539574696
 Ga        34.6077583035       26.5013790167       23.7973334301
 Ga        29.3884492128       42.5624022017       12.7716002198
  P        38.6700794902       27.9863797056       11.6442807646
 Cl        32.9852636332       41.5020181727       35.7520800422
 Ga        29.2336509112       15.6476837233       39.9169713498
  P        38.6474551067       27.8921668237       17.0745899989
  P        38.5734000003       27.8768599965       22.4780700644
 Ga        42.5565549026       23.8611814595       23.9185839407
 Ga        42.4165253994       23.8320383868       29.2397064382
 Ga        39.9199074024       26.5100396261       29.2250170668
 Ga        34.6871706217       40.0045377495       31.9597397368
 Ga        42.5529807067       23.6851914585       34.5987840522
 Ga        37.2762780613       23.7799427376       23.7875894189
  P        38.7607720415       16.8403692888       38.7316332703
 Cl        35.7773933021       33.0091032312       41.4708052141
  P        36.0113907801       25.0991963006       38.6354782144
 Ga        34.6189204524       34.6198567707       26.5699938832
 Zn        26.5011482868       42.5726969466       26.4880307476
 Ga        29.1734144173       37.2528246193       23.7825023296
 Ga        34.6890500812       34.6793312759       31.9639907364
  P        27.8735795862       22.4424858990       22.4665151107
 Ga        42.3123816638       32.0434115123       15.5722350662
 Ga        34.6171460306       26.5161748156       29.2289563857
 Cl        35.5909940794        8.6956223663       22.8841169719
 Cl         8.7246432051       12.0626244247       24.6304178855
 Ga        26.5619435188       21.0550864976       15.7530661479
 Cl        38.6429061201       20.0066295132       14.4219248259
 Cl        35.9466020829       35.9581673610       11.6825780805
 Cl        35.8666319175        9.1398048647       28.1023517937
 Cl         9.1773702881       14.4942838923       22.2695869988
 Cl         8.5842228476       14.8611774584       27.2643220771
 Ga        26.5595756268       21.0576587099       21.1220233367
  P        35.9344695633       35.9495703843       17.0681478455
 Cl        36.0144102276        9.2182187072       33.5047883332
 Cl         9.1821453679       17.0342652888       19.6198680989
 Cl         9.1312239192       17.2223183138       24.9021896218
 Cl         8.6891294851       17.4250480548       30.1192114267
 Ga        26.5209271802       21.0999489644       26.5136013859
  P        35.9421887727       35.9593036539       22.4623079665
 Cl        41.4475151652       14.5354846240       22.7693030504
 Cl         9.2007931645       19.5884553881       17.0953459838
 Cl         9.2025670212       19.7626600109       22.3489861716
 Cl         9.0515875070       19.8137664980       27.7303714144
 Cl         8.5960042652       20.3132943850       32.7023367760
 Ga        26.5021047986       21.0954063937       31.8906918364
 Ga        26.4888070933       42.4855353002       31.8709243425
 Cl         9.1976764789       22.2134569207       14.5458257417
 Cl         9.2299210319       22.3393783894       19.8042836973
 Cl         9.1058870877       22.5646754600       24.9617887838
 Cl         9.1757248112       22.6524840295       30.3545308939
 Cl         8.6945930010       22.8975410238       35.5954249734
 Ga        26.5055198404       21.0563657562       37.2546466151
 Ga        42.4069710158       31.9676481517       21.1196749381
 Cl         8.7182330723       24.5577147282       12.0996157613
 Cl         9.1395737317       24.8795041227       17.2799545451
 Cl         9.2420544780       25.0748385867       22.4631731293
 Cl         9.1351286225       25.1225488786       27.8840485364
 Cl         9.0505815502       25.2783370355       33.1920738260
 Cl         8.5964642157       25.7921213787       38.1614951865
 Ga        26.5932425881       21.1214247774       42.4790800618
  P        27.8706586150       22.4459889386       27.8644955173
 Cl         8.5881324725       27.2298721328       14.9111496710
 Cl         9.1739832877       27.6103193372       19.9665596034
 Cl         9.1161611849       27.9003438316       25.1120669097
 Cl         9.1068089484       28.0405973218       30.4388342686
 Cl         9.1231804411       28.1294176867       35.7853920623
 Cl         8.7304195982       28.4507348300       40.9491163090
  P        33.3029082708       17.0474882723       27.8617422146
  P        27.8661336409       22.4437662740       33.2213897237
 Cl         8.6362816395       29.9841392804       17.6124549544
 Cl         9.1778542916       30.3823495934       22.6434401487
 Cl         9.2395558206       30.5391219510       27.9339691416
 Cl         9.2021512252       30.6566174676       33.2376681547
 Cl         9.1815544521       30.8034254392       38.5144188687
  P        33.2988758016       17.0454424973       33.2422536817
  P        27.8727693393       22.4506519129       38.5538325462
 Cl         8.6629946456       32.7467651235       20.3037507520
 Cl         9.1501253771       33.0333215047       25.4190981101
 Cl         9.2269668214       33.1958030440       30.6642381149
 Cl         9.1737818939       33.3991097594       35.9697062606
  P        33.3178885529       17.0181979440       38.5708550132
  P        33.2701005841       11.7082738363       27.9502581742
 Cl        27.9601005844       22.4421475125       43.8089884166
 Cl         8.5770537691       35.3840742367       23.0772506389
 Cl         9.1304540091       35.7179327816       28.1325144892
 Cl         9.1972399489       35.9082487056       33.4186170978
 Cl        33.4025454653       17.0394778216       43.8142219311
 Ga        37.4124045840       10.3500301283       26.5716845343
 Cl        27.8590370384       25.0981268457        9.1385318260
 Cl         8.5791436673       38.0876624036       25.7879523090
 Cl         9.1869473811       38.4450722440       30.7877722507
 Cl        32.6910311299       20.2946303055        8.6131737908
 Ga        37.5135046787       10.6864948047       32.0479989400
  P        38.5925089961       27.8564434157       27.8517180971
  P        27.8418506787       25.1559312844       14.4672785754
 Cl         8.7080010229       40.8964802299       28.4539805233
  P        33.2486753685       19.7537488287       14.3308768802
 Ga        34.6008267352       42.4869469167       23.7016680993
  P        38.6990556098       27.8197491878       33.2796721430
  P        27.8787304769       25.1420467936       19.7976042763
  P        33.3011025675       19.7054056137       19.7331541306
 Ga        34.6820306072       26.5102903438       34.6195057376
  P        38.7133654265       27.7876045264       38.6882670821
 Cl        38.1684042438       27.1824019539       44.4391647432
  P        33.2761932284       19.7382988617       25.1557788136
 Cl        33.3874387845       43.8239851340       17.0329803706
 Cl        38.4955194547       30.8121112361        9.2389093354
  P        38.6747831562       30.6558267415       14.3525596867
 Ga        34.6762682346       26.4315876150       39.9936980922
 Ga        32.0464615045       37.4218705145       10.6771583479
  P        38.6843039624       38.7583932075       16.8970307130
 Cl        43.8197616118       30.6994319369       19.8293767527
 Ga        34.5251998979       13.1798000028       37.5954635471
 Cl        41.4969317940       20.0809958852       17.3032158799
  P        38.6933653152       19.7590661150       19.7642369848
  P        35.9870253323       35.9841404236       27.8591233465
 Cl        35.7361599645       11.5389481983       20.0049236581
 Ga        31.8855390469       37.2721678357       15.6640727039
 Ga        31.8905400462       37.1946644657       21.1065995603
  P        38.6553507426       19.7622755291       25.1808161719
  P        36.0363220032       35.9948968355       33.2899442209
  P        35.9533423135       11.6011171414       25.2552710324
  P        27.8063728712       11.7211427329       22.4971082073
 Cl        33.1857663041       43.8128569643       22.3269683108
  P        38.6243711064       19.7542595441       30.5807017266
 Cl        35.8412124771       35.8487696936       38.6228181590
  P        36.0136951757       11.7301376188       30.6524609357
 Ga        10.4382561465       12.8383090150       23.6927634389
  P        30.5961234688       14.4030780903       33.2482779244
 Ga        40.0804373882       31.8811029065       34.6132018602
 Cl        33.0611165297       43.8936120677       27.6054698816
 Ga        26.5075180391       42.6423776215       37.4170845243
 Cl        35.9598648059       11.6598372310       35.9903307918
 Ga        10.6969123839       15.4935539039       21.0262036810
 Ga        10.3592903857       15.6452687942       26.5022832870
 Ga        26.5116039676       23.7779344199       13.1489160788
 Ga        29.2241258607       13.0004704415       21.1282137650
 Cl        43.8439689475       27.9546712138       22.4815025648
 Cl        32.7379456565       44.4209536334       32.7495836368
 Ga        10.4493286191       18.3928513268       18.4650337319
 Ga        10.5987011987       18.3804355962       23.7683297243
 Ga        10.2746484304       18.3976979664       29.1650344243
 Ga        26.5623159586       23.7681354014       18.4610709305
 Ga        31.9460831826       37.2723008291       26.5201610150
 Ga        37.2684379073       23.8332596487       29.2275885797
 Ga        39.9793808406       26.5100676116       18.3909710477
 Ga        10.6939803742       20.9470231117       15.5677726287
 Ga        10.6009766669       21.0414976752       21.1170174376
 Zn        10.4318313774       21.1143976630       26.4989723731
 Ga        10.3490650060       21.1121426388       31.8925667647
 Ga        26.5228841864       23.7835366451       23.8257730847
 Ga        31.9716519677       37.3405657930       31.9605904665
 Ga        29.2397158497       13.0850363963       26.5059400810
 Ga        10.4371946602       23.6111777082       12.8508807635
 Ga        10.5889027393       23.6943727327       18.4053651920
 Ga        10.5958462570       23.7647327378       23.8475273058
 Ga        10.5922435333       23.8574194274       29.1450943011
 Ga        10.2754611260       23.8434374057       34.6081505022
 Ga        26.5108800293       23.7791926895       29.2207478969
 Ga        31.9669555389       37.3327569377       37.3573721691
 Ga        29.2533909986       13.0944761305       31.8841700926
 Cl        27.2535750639       14.8544835370        8.6423976175
 Ga        10.3644650706       26.4324885811       15.6542430577
 Ga        10.5905092680       26.4308314032       21.1414907035
 Zn        10.4436953324       26.4915987248       26.5107657649
 Zn        10.4319356030       26.5030308650       31.8868290702
 Ga        10.3580885728       26.5655881918       37.3553125037
 Ga        26.5043752846       23.7747971230       34.5535453424
  P        27.9438165820       11.7253945996       33.2509827800
 Ga        37.3432714870       23.7839031480       34.6114666871
  P        27.7978102420       14.3081684753       14.3659008106
 Ga        10.4204622555       29.2279326108       18.3817645040
 Ga        10.5235044677       29.1451586478       23.8615507530
 Ga        10.5962598790       29.1536753593       29.2366699162
 Ga        10.6016212575       29.2429438899       34.6200616588
 Ga        10.4393722525       29.3849708701       40.1602871596
  P        33.2749347769       19.7495906663       30.5424693601
 Cl        27.7512074385       33.1694189209       43.9605701205
  P        27.8524883711       14.3321623076       19.7635686527
 Ga        10.4174847703       31.9561204213       21.1098719542
 Ga        10.5902718067       31.8596370827       26.5787905380
 Ga        10.6002208365       31.8851654103       31.9555456544
 Ga        10.6961075117       32.0448752540       37.4993350627
  P        33.3048490703       19.7264972914       35.8984494336
 Ga        29.2116644798       34.6072234081       15.7318021647