    1259
 i =      146, E =    -32885.9277634767
 Cl        18.8567796432       42.3094628823       18.1713757118
 Cl        23.9920994926       41.7302941502       24.0029520376
  S        38.8375443102       15.1949920683       24.0120225835
 Cl        41.7959702903       18.3414261443       24.0563685863
 Hg        31.5279019549       19.4700951338       40.1333889470
  S        18.0655556309       32.8773367976       26.9488734655
  S        20.9764094117       35.8657866695       26.9819762203
  S        23.9237065845       38.8237838022       26.9402668652
 Cl        26.9576953905       41.6213602881       26.9724287305
  S        18.0326755663       29.9362006418       18.0357375928
  S        32.2617264517       39.2224431879       29.9211866198
  S         9.1658688018       23.9072662376       15.0565894763
  S        20.9921653038       29.9151228005       21.0247413929
 Hg        34.5256043424       19.4415328677       13.6416538164
  S        20.9751108156       32.8783709840       18.0434462791
 Hg        31.4851952139       40.3001326389       19.5279118627
  S        23.9628093957       15.0838976853       26.9777928073
 Hg         8.6249748513       28.4079313901       13.8178213310
  S        29.8942782143       12.1422592698       18.0356339299
 Hg        13.7618946945       34.4035964354       14.1937197263
  S        33.0077569826       15.0825936231       18.0316740810
 Hg        19.2451330545       38.5304742970       13.3552704574
  S        39.5315389926       28.4115513710       13.8987043716
  S        21.0380212451       23.9803835324       15.1136830823
 Cl         6.2294733487       26.8922710180       21.0720782059
  S         9.2076040722       29.9525299362       21.0443864871
  S        23.9693218006       35.8518482825       18.0770203604
  S        15.1182676942       12.1373397186       33.2213660022
  S        18.0361411577       15.1059264529       33.0122605485
  S        21.0261335339       18.0378942642       32.9405811236
  S        23.9733083714       21.0424446370       32.9035182603
  S        26.9534589238       24.0101300094       32.9118771199
  S        29.9447653848       26.9739022057       32.9112147381
  S        32.9135601218       29.9805906670       32.9430774205
  S        26.9684459500       26.9877077471       35.8764346908
 Hg        39.6716093659       26.0856233573       14.4080543169
 Hg         7.8430046998       25.3578958318       16.6440720241
 Hg        10.7718292332       28.4637776831       16.6306902656
 Hg        13.6112924869       31.4240539677       16.4159057336
 Hg        16.5114726721       34.3901625789       16.4858748293
 Hg        19.5171959276       37.2652629375       16.6797029050
 Hg        22.6622422169       40.0759097252       16.6568239062
 Hg        25.1870536385        7.3070958108       12.5600872068
  S        15.0718682329       18.0193119060       26.9834221969
  S        35.9643518714       33.1084421941       32.5472688798
 Cl        23.9791427683       41.7670628965       29.6950254294
  S         9.1980677781       21.1954764657       36.0487964853
  S        12.0749413078       24.1642161716       36.0526358092
  S        15.0786293375       27.0295147085       35.8823924901
  S        17.9281322107       30.0699735926       35.9198235995
 Hg        39.9040258669       14.1610524306       19.7575328544
 Cl        21.1343807721       15.1013957794       41.7585688707
 Cl        23.9762028801       18.2713124926       41.7762695954
  S        29.9573581276       29.9671328721       35.7884018310
 Hg        22.4722762403       31.3867608316       19.5255656052
 Hg         7.7590131949       22.4108841998       19.4751031267
 Hg        10.6467025394       25.4480572498       19.5668945574
 Hg        13.6608974286       28.4138265705       19.5751124159
 Hg        16.5234608655       31.4292095645       19.4873435959
 Hg        19.5244772556       34.3302906060       19.5796421967
 Hg        22.5114657061       37.3192722594       19.5788000129
 Hg        25.5479842323       40.2208185813       19.4496752180
  S        18.0107922134       35.8210823761       18.0917685043
  S        18.0377156402       21.0024362851       26.9892233698
 Hg        34.4865637027       10.9547912880       22.6350284292
 Cl        27.0670762406       20.9216453121       41.7052363157
 Cl        29.7559450451       24.1174901269       41.6869096196
 Cl        33.1311602070       26.7068298762       41.5038220434
 Hg         7.8467136527       31.5455171654       28.5430537038
 Hg        33.6795822743       21.9069500275       40.1725059423
 Hg        31.3203630255       13.6692648531       11.1449355829
 Hg        10.8109619216       13.6076047427       19.3115915343
  S        18.0206474605       11.9799438417       35.7463621726
 Hg        10.8008522424       34.3503772470       28.7071064567
 Hg         7.7536766416       19.4537923029       22.4280552339
 Hg        10.6378606179       22.4766002012       22.5005378402
 Hg        13.5948305295       25.4583886383       22.5285072587
 Hg        16.5673022134       28.4391782410       22.5205332989
 Hg        19.5008115611       31.3847042335       22.5115781685
 Hg        22.4787108986       34.3637162609       22.5151341554
 Hg        25.4574938875       37.2995927764       22.4698112758
 Hg        28.4218872981       40.1693713712       22.3899123165
  S        20.9760456234       38.8550426308       18.1187907070
  S        21.0885584908       15.0004766300       35.9770040317
  S        23.9929912280       18.0640941786       35.8166466688
  S        26.9773062977       20.9973390170       35.8835051301
  S        29.9263092854       23.9842623437       35.8726201215
  S        32.9212664379       26.9462698695       35.9105349755
  S        35.9738318385       29.8066916324       35.9282240354
  S        23.9661500601       12.1052374398       18.0597149772
 Hg        28.3783473930       13.4376521276        8.8458880876
  S        21.0025245973       32.9045135534       35.7597607878
 Hg        13.6114131037       37.1438784101       28.6921851975
 Hg         7.7942294921       16.5564976138       25.3631609435
 Hg        10.6209228812       19.5123902937       25.4755277470
 Hg        13.5865808802       22.5066157401       25.4738984709
 Hg        16.5591921744       25.4484648452       25.4854219180
 Hg        19.5241890782       28.4246320957       25.4758403127
 Hg        22.4842216950       31.4002048351       25.4594812628
 Hg        25.4438071821       34.3943607156       25.4723876585
 Hg        28.4092826072       37.3032075944       25.3692370970
 Hg        31.2489389204       40.5150294438       25.3401151664
 Hg        37.6279934610       19.5527294727       11.7269779017
  S        23.7953804083       36.0151944372       35.9750157520
  S        26.7813867119       39.1647058529       35.9231309129
  S        20.9428062261       15.0991603788       12.2073048611
 Cl         5.6535163228       18.8952486034       29.8211427958
  S        32.8266282749       33.2142870858       35.8619227426
 Hg        16.3996212475       40.0925133913       28.4967689165
  S        20.9471720259       35.8580123600       32.9197018143
  S        23.9775373350       38.8259912120       32.8238073197
  S        21.1308659843       17.9986430298       38.8224821189
 Hg         8.8093637454       13.4453865547       28.4086223642
 Hg        10.5460874213       16.5117113372       28.6351844309
 Hg        13.6178536913       19.5510553563       28.4204640616
 Hg        16.5609408123       22.4837853115       28.4814028015
 Hg        19.5282262708       25.4482815834       28.4681019651
 Hg        22.5021753439       28.4428206409       28.4598670530
 Hg        25.4532095256       31.4261679098       28.4697096288
 Hg        28.3924182252       34.3860316259       28.4221141671
 Hg        31.4444884113       37.3335083766       28.4756927463
 Hg        33.8299901961       39.8951418167       28.2635305995
 Cl        23.8562886138       41.6608084756       18.1997776887
  S        20.9246285358       38.7981625298       29.9793915124
  S        21.0136203662       23.9724153225       26.9794375803
  S         9.1077578119       21.0035840323       29.8751479103
  S        12.1032295514       23.9850004481       29.9310875379
  S        15.1068047038       26.9140882596       29.9232188638
  S        18.1101594312       29.8502655352       29.8701792428
  S        21.0088956157       32.8769242902       29.9198449221
 Hg        13.5641802081       16.6945791440       19.5009864100
 Hg        16.5699834828       19.5648584526       19.5959345335
 Hg        10.7391674827       13.7628926434       31.5913293878
 Hg        13.5746260198       16.5172303095       31.5021152998
 Hg        16.5516271831       19.5127739472       31.5029893064
 Hg        19.5168821290       22.5017578480       31.4428434459
 Hg        22.5200394949       25.4733916168       31.4263968648
 Hg        25.4679398355       28.4756092989       31.4195862621
 Hg        28.4671966113       31.4783113912       31.4211390394
 Hg        31.4236572665       34.5613045576       31.4220435487
 Hg        33.7137792422       37.9124920881       31.5578139062
  S        20.9907972678       12.1155475815       26.9925504263
  S        21.1757974140       12.0386155688       39.1565180189
  S        23.9772532244       15.1433522852       38.8281484534
  S        27.0299941183       17.9917588304       38.8085829960
  S        29.9271920874       20.9248332956       38.7916589139
  S        32.9038888851       23.8735565708       38.8486676098
  S        35.8826139768       26.7451102024       39.0389931233
  S        18.0379035421       26.9552431605       21.0254707191
 Hg        13.3187882774       25.3513894412       10.5534602830
  S        35.7755777493       18.0526443526       24.0133249295
 Hg        19.5280370826       22.5066607479       19.5579943526
 Hg        13.6028429268       13.9105393452       33.9471844127
 Hg        16.5474745864       16.5675190251       34.5616389011
 Hg        19.5735523146       19.5663521846       34.3991119893
 Hg        22.5131862431       22.5164670738       34.4157303697
 Hg        25.4729847535       25.4914503152       34.3907393967
 Hg        28.4213335621       28.4511163078       34.3368033152
 Hg        31.4330579003       31.5898913535       34.3830625739
 Hg        34.3517819748       33.9292841602       34.0979539368
 Hg        16.4700942167       28.4850996861       10.6392694752
 Cl        26.8216629707       41.7583783543       32.8593294770
  S        12.0816324860       32.9175303964       21.0653325311
 Hg        17.1327333110        7.7810112750       30.9736749598
 Hg        31.2694365053       19.5275618918       10.7953753627
  S        23.9811739685       26.9566733170       26.9730715286
  S        23.9594456237       35.8003036985       29.9179631271
  S        26.8202449112       38.7999053200       29.9756056134
 Cl        36.8830823321       33.2923179637       36.0743585543
  S        23.9669772212       18.0283013993       12.1290490234
  S        26.9570629868       20.9749990597       12.1332421929
 Hg        22.4814250036       25.4650604076       19.5419461818
 Hg        16.7513983967       13.5915627561       37.4301895408
 Hg        19.4762920807       16.4749753352       37.3661526886
 Hg        22.5796312458       19.5342365831       37.3335697816
 Hg        25.5062577317       22.5021780605       37.3375230362
 Hg        28.4282442593       25.4543102708       37.3298826485
 Hg        31.4225998517       28.5126841865       37.2863980663
 Hg        34.4657353410       31.5584327791       36.3679233936
 Hg        19.5084663833       31.4394417649       10.6630840256
  S        29.9154235078       23.9654737387       12.1483751157
 Hg         7.8346557558       19.4928693745       16.4036998574
  S        26.9180937146       18.0686541845       26.9475047168
 Hg         7.8279093491       14.2250045004       21.9292299523
 Hg        10.7094086853       16.5514306727       22.4194198745
 Hg        22.6206184528       34.5662018428       10.4982512543
 Hg        13.5953607516       19.5378334449       22.5327085867
 Hg        25.4409857809       28.4229157295       19.5509073149
  S        29.8889634298       21.0438102055       26.9529880444
  S        12.2395674023       12.2370961013       17.8247383388
  S        15.1643353603       15.1775422970       18.1317849390
 Hg        28.3871494372       31.3817590524       19.5878409508
 Hg        19.7556091118       13.9256444966       39.8355208249
 Hg        22.6259219363       16.6402505251       40.4726254706
 Hg        25.5716807175       19.5098441089       40.1853675995
 Hg        28.5033057604       22.4209035890       40.2467746967
  S        29.9431363994       15.0742457205       21.0040424245
  S        32.9156261309       18.0349130490       21.0413010661
  S        35.8826392782       21.0368389941       21.0675075960
  S        38.8167561328       24.0299744084       21.0618444722
 Cl        41.6920818121       27.1106421125       20.9409711766
 Hg        31.3323265746       25.3602304169       40.1687870185
 Hg        34.1858822230       28.3639054727       39.4356178145
  S        35.7699950370       20.9701540999       32.9150289037
  S        18.1063277088       18.1113026419       18.1505918359
  S        21.0370779847       21.0316809442       18.0958654427
 Hg        34.6211547928        9.4283739967       19.2828739771
 Cl        16.9984397158       11.7456544994       39.1430412058
 Cl        26.7359717252       15.6481166103       42.0039435677
 Cl        30.7698362015       17.1159058827       40.7085420315
 Cl        32.0654026432       21.0947952913       42.0646093093
 Cl        35.3872892457       23.2007775123       41.9501464649
  S         9.1137562838       18.0076350177       27.0088044109
 Cl         7.3015021801       30.7935820768       30.8812984886
  S        29.9342923829       26.9785330568       38.8024381166
  S        20.9649327405        9.1617030797       29.9578186025
  S        38.8442574192       27.0132364517       30.0008552554
 Cl        42.3095590496       29.8147603085       29.1110133318
  S        18.0200892522       35.8764093099       23.9991557508
  S        32.8649355186       36.1184630954       32.9666529422
  S        23.9699995220       20.9613810553        9.1634174825
 Cl        30.8332440200        7.2958493371       30.8133490553
  S        32.8776048675       32.9981651853       29.9427354695
  S        12.2314769759       35.7271889000       30.1858213444
 Hg        10.7231690368       22.4149136763       16.5764137658
 Hg        13.6084741613       25.4466443615       16.5783226176
 Hg        16.5631776692       28.4666625312       16.5240263966
  S        20.9611023478       38.8350114838       23.9984034704
 Cl         5.9355123665       21.1548532180       15.8701406227
 Hg        35.2750194011        7.3812639859       22.5192114220
 Hg        28.5486802094       37.1925743481       19.4239001417
  S        36.3241599130       35.6357054053       29.7647941707
 Cl        17.1702326003       40.6771262583       30.8521702343
 Cl        41.7237568444       23.9799999638       23.9931162489
 Hg        19.4638003737       10.7256944612       31.4317422935
 Hg        19.4662097110       16.4083771944        7.8976204729
 Hg        22.4093481175       19.4299301365        7.7567172052
 Hg        25.3892831239       22.5536035376        7.8151469981
 Hg        28.5480486693       25.5166401203        7.7868578834
 Hg        31.6091634094       28.4330187347        7.8993300733
  S        38.7923112572       23.8746292035       32.9864082888
 Hg        31.2879307513       10.7016124453       19.5626835460
 Hg        16.5581352142       22.5021331332       22.5353177933
  S        24.0279396110       21.0331369361       38.8412861170
  S        32.8771733359       24.0041458919       26.9934024717
  S        23.9842568257       23.9662902235       18.0884322634
  S        26.9191953638       26.9136138339       18.0910962075
  S        29.8394113062       29.8466508036       18.1449518114
  S        32.7752215592       32.7948068452       18.1487042350
  S        35.7720805084       35.6589206440       17.8172817071
  S         9.1787670162       24.0497126825       32.9669614344
 Hg        31.2858744040       34.4371364890       19.5171628535
 Hg        19.5205729241       25.4642145225       22.5135770368
 Hg        22.5048203326       13.6043275898       31.4410603635
 Hg        19.2901698808       13.6242474679       10.8377672159
 Hg        22.3958780540       16.5487909813       10.7270473495
 Hg        25.4531432857       19.4915976061       10.6673417175
 Hg        28.4105264565       22.5024649404       10.6887394647
 Hg        31.4241807629       25.5301467848       10.7878293488
 Hg        34.3092542479       28.5872046142       10.8829961783
  S        12.2318182309       26.9407337532       32.9200433750
 Hg        34.4401503823       13.5052070247       19.4481420527
  S         9.0472236335       17.9320496341       32.6925389666
  S        12.0618008907       21.0449723251       32.8795147380
  S        15.0740418918       23.9581295035       32.9410772515
  S        23.9797243174       12.1126614814       29.9511442073
 Hg        22.4795129198       28.4209313502       22.5081788786
  S        18.0564453642       26.9550319914       32.8991540781
  S        21.0391288900       29.9029593905       32.8825873675
  S        23.9808640559       32.9239786741       32.9189620990
 Hg        25.4307204603       31.3952944581       22.5201788165
  S        32.7756538451       30.1294051434       38.7978375066
 Hg        25.4648232906       16.5494855413       31.4579303906
 Hg        19.2909588016       10.8116993136       13.6237199667
 Hg        22.4828058414       13.5768571325       13.5939795211
 Hg        25.4667756935       16.5393163105       13.6030031839
 Hg        28.4060351678       19.5052840872       13.6703124712
 Hg        31.3713263577       22.5092278464       13.6879172243
 Hg        34.4843781032       25.4681909927       13.6938532254
 Hg        37.1918119436       28.8142757662       13.5438272167
  S        15.1834267599       29.8448063238       32.8198212689
  S        12.0810187441       30.0321335179       30.0925833665
 Hg        28.3947387534       34.3204050463       22.4967146591
 Hg        31.3189882348       37.1982040409       22.4436278388
 Hg        33.5928281991       39.6643428196       21.9105355916
  S        26.8701951863       35.9655473504       32.9804057878
 Hg        31.5797040008       18.5056550252        7.2682469023
 Cl         6.2467266992       24.0157071381       23.9791240889
 Hg        12.5540421247        7.2807586607       25.2054325615
 Cl         6.0882390223       23.2939981520       12.5494349834
  S         9.0376723195       26.8166710196       12.1020442098
  S        26.9616311035       29.9745657914       32.8973514921
 Hg        19.4737643008        7.8529374207       16.4084077817
 Hg        22.3995256381       10.7121577895       16.5669345424
 Hg        25.4707169368       13.5733254949       16.5675592106
 Hg        28.4926435454       16.5267163512       16.5689663741
 Hg        31.4673269718       19.4821680205       16.6013777118
 Hg        34.4138689769       22.4354710662       16.5250054142
 Hg        37.1964548177       25.5431388109       16.6801917069
 Hg        40.3016025345       28.4610860915       16.5129644356
 Hg        28.4023823131       19.5637952216       31.4131691703
  S        11.9712500730       29.9298038295       12.2544206077
  S        14.9980813422       32.8697193214       11.8727416293
 Hg        34.5200166762       19.4300673737        9.1408199393
 Hg        35.4980766528       22.5842760650        7.5851476877
 Hg        35.3753545344       25.1935796805       40.7217918181
 Cl        26.8133096092        6.1845484253       21.1889616507
  S        29.9529970539       38.9733400601       32.6665127159
 Hg        28.6159253699       16.4483713284       10.5722734514
  S        35.8624178437       26.9563811931       26.9943231292
  S         9.0754521586       11.8868143622       26.6710824330
 Hg         7.2738433000       35.3733757243       22.7917055012
 Hg        22.4039799450        7.7576862947       19.4607191487
 Hg        25.4520444831       10.6353817294       19.5239451611
 Hg        28.4015882021       13.6155974674       19.5556723092
 Hg        31.4891885975       16.5341030847       19.5132029996
 Hg        34.3763549722       19.5584157491       19.5836604835
 Hg        37.3003659068       22.5866413423       19.5710867903
 Hg        40.1647023083       25.5882742544       19.5678335996
  S        26.9266619920       15.1074152046       29.9176084202
 Hg        12.5000727276       40.6244011932       22.7920514598
  S        26.9362175154       12.1005423780       21.0296272903
 Hg        19.4943203031       31.4064053849       16.5009627003
 Hg        34.4639258965       37.1907729603       19.1849752388
  S        12.2472162550       21.0924998883       39.2540038454
  S        15.1965065453       23.9959273309       38.8685132789
  S        18.0182510917       27.0528596108       38.8053519359
  S        20.9357822505       29.9768819376       38.7833975280
 Hg        22.5062653254       34.3407210023       16.5967495338
 Hg        25.5246534571       37.2191403145       16.5624597917
  S        12.0130654429       15.0800883671       26.9664999715
  S        19.5382510573        8.4245913933       13.9002027210
 Hg        25.3679485081        7.7848846296       22.5971499214
 Hg        28.3832973999       10.6488632885       22.5664978253
 Hg        31.3801655197       13.6071310884       22.5437577694
 Hg        34.4196125834       16.4698987867       22.4291491449
 Hg        37.2956183091       19.5645246841       22.6538757341
 Hg        40.2461511602       22.5137462829       22.5498770155
 Hg        31.6190484635        7.1323524084       18.7857806395
  S        29.9129750370       35.7887810964       23.9960733885
 Hg        28.4394681443       40.0913273741       16.3749500633
 Hg         7.3906869432       22.4963247658       35.3332796818
 Hg        19.4872612976       31.5919325512       40.1213448473
  S        23.8886058899       32.9595877085       38.8236464701
  S        26.7991545782       35.8981457088       38.9660769411
  S        26.9482096931       29.9007171286       15.1199230273
 Hg        31.4284260708       22.5113726014       31.4531030261
  S        18.1040649770       18.0932345007       35.9013854522
  S        12.0402609314       26.7770419763        8.8401433639
  S        15.3003208953       29.9435926126        9.0185399835
  S        18.1230164673       32.8019714444       32.8082737832
 Hg        34.4233328123       22.6343511344       11.1915939290
 Hg        28.4803044237        7.7711199910       25.6072907583
 Hg        31.4149042192       10.7296098983       25.5767206617
 Hg        34.4827925045       13.6496411023       25.4458207545
 Hg        37.1925762954       16.6410372384       25.5537489168
 Hg        40.1687327761       19.5458516877       25.6296114659
 Cl        24.1279559958        6.3307323366       18.2289931455
  S        32.7569691571       38.8537525610       23.9855026271
  S        18.0636576727       32.2297124475        8.7616012825
  S        21.0869546657       35.7050391891        8.7562474027
  S         9.1466359746       26.9868141239       24.0302702499
  S        15.0802015942       26.9435700905       23.9982269739
  S        11.6453895925       18.2127073907       35.6421887153
  S        14.9713138077       21.0116221071       35.9753202380
  S        18.0534991020       23.9893363532       35.8108913172
  S        20.9962550959       26.9858374883       35.8798910288
  S        23.9814539264       29.9413819231       35.8781108294
 Cl         6.3248529872       18.1972786892       24.1390192165
  S         9.1384139942       20.9937960479       23.9794881868
  S        29.8436029316        9.1196210572       21.0270377533
  S        11.9890921260       15.4534615859       33.1101784261
 Hg        31.6063886349        7.8469423136       28.4774812607
 Hg        34.3074153947       10.8272123398       28.5759036635
 Hg        37.1797108891       13.5092377186       28.8069974047
 Hg        40.3017487021       16.4615195131       28.4615415703
 Hg        37.9833153499       14.4135042596       16.4658257107
 Cl        35.8029619463       39.0961855842       31.0563500555
  S        26.9429812437       32.9197899382       35.8935296229
  S        29.9373222639       35.7547225220       36.0007712203
  S        26.9904906278       23.9902340497        9.1674229684
  S        29.9836313651       27.0048863897        9.2452534466
 Hg        21.9203064509       33.7390251748       40.1450458050
  S        18.2008957202       36.3120544828       12.3632992058
 Hg        34.3852183874       25.4947379235       31.4474629776
  S         8.4249016762       19.5759006556       13.8973578819
  S        12.0034115518       23.7945128315       11.9904301444
  S        14.9984499565       26.8711821228       12.0318300229
  S        18.0811678774       29.8612386090       12.1080239391
  S        21.0040342996       32.9836111850       12.0338241446
 Cl        17.1373167418       30.8084528863       40.6922955279
 Cl        12.5413551013        6.0479197109       23.2172249556
 Hg        13.4905624017       10.8226897345       25.3764556199
 Hg        16.5409045210       13.6004187545       25.4907154750
 Hg        19.5135814479       16.5677899482       25.5027834707
  S        26.9857511268        9.1322511323       18.0225253756
 Cl        21.1169676250       32.1404087338       42.0504445003
  S        24.1550941545       35.8757565826       11.9534469067
  S        28.3378355566       39.5376540264       13.8731894968
  S         9.0960726622       14.9993717751       30.1289232151
  S        21.1895308338       38.7547381999       11.9591556031
 Hg        37.4093652922       28.6385060169       31.4925471973
 Hg        25.2106566305       35.4754176353       40.6316472719
 Cl         6.5674700338       26.7963481806       14.8457585755
  S        15.0808419228       12.1790684121       20.9774283877
  S        18.0581314617       15.1037305638       21.0627467909
 Cl         5.9391637509       32.0679893196       26.8924291934
  S        32.8942787144       26.9577073872       12.2708510850
 Cl         6.0930564074       12.5218417705       23.2292236249
  S        18.0305315860       29.9212926377       24.0103971753
  S        15.7081569257       18.0565560655       39.2279848299
 Cl        23.2317179361       35.5013807333       41.8728101293
 Hg        37.4687463234       13.3733280267       22.6317644101
 Hg        40.5098571642       16.7100690928       22.6907161999
  S        23.9825536266       23.9942292750       29.9316174394
 Hg        40.8400771390       31.6533879006       29.2305818690
  S         9.2899988276       30.1924249616       15.2024121287
  S        12.2134832805       21.0062005004       15.0962444933
  S        15.0646404186       23.9808464690       15.0800402128
  S        18.0339050940       26.9322119964       15.0735594151
  S        21.0167882472       29.9173946265       15.0643906352
  S        23.9503414835       32.8839059804       15.0713009490
  S        26.9327584809       35.7190026848       15.0899180390
 Cl         5.9401654775       15.8623504633       21.1439633221
  S        29.8490174470       15.1792660006       32.8153932173
  S        18.0217194008       21.1817449068       38.8307790568
  S        21.0508443510       24.0522450934       38.8475772458
  S        23.9739473923       27.0110429283       38.8500898691
  S        35.6617080948       30.1908278673       12.2405043219
 Hg         7.3302867463       12.5387210627       25.2308409510
 Hg        10.8860031345       13.4957464127       25.3546414112
 Hg        13.5724537081       16.5499926794       25.5067436027
 Hg        16.5627734693       19.5158620832       25.5019686928
 Hg        19.5246154140       22.4906764806       25.5052466663
  S        26.9988699701       29.9528090333       38.8325469775
  S        30.1648320378       32.8050094601       38.7553982697
  S        23.7185729165       12.0141434601       12.0283698525
  S        32.8534815103       12.0692455705       21.0646013523
 Cl         5.9130126007       26.8157721546       32.1485158088
  S        26.9259081258       15.0731474843       12.0644050778
  S        18.0625700935       26.9159114109       26.9507701542
  S         8.4240978507       13.8942088020       19.5541879847
  S        12.0672908248       17.9325775923       17.9339975103
  S        15.0983466895       21.0406133636       18.0991190262
  S        18.0416503165       23.9758882495       18.0610979977
  S        21.0015804681       26.9505039329       18.0510107548
  S        23.9684583749       29.9131196283       18.0570192300
  S        21.0291641021       29.9008023471       26.9427964063
 Cl        23.1865708421       12.5480992751        6.0902263131
 Cl        26.6555408677       14.7331644876        6.5412503557
 Cl        29.8343209259       18.7358219346        5.7452654622
 Cl        33.1107716078       20.9793031340        6.7846807960
 Cl        35.3704621818       24.4473653437        6.1872948044
  S        12.2025084581       17.7800298860       12.3245788734
  S        26.9048607720       32.8521678745       18.0905314684
  S        30.0252818204       35.8891396059       17.9174134845
  S        34.0989151665       39.5296650156       19.5850071931
  S        15.0589326460       20.9547223981       12.1413965562
  S        14.0929505480       33.8548684691       33.8753888172
  S        20.9899694281       32.8867382726       23.9829444293