     149
 i =       46, E =     -5251.2336682499
 Zn        11.6770484292       12.7586956802       10.5631433407
 Zn        11.6736745756       10.3663241789       13.3538732542
 Zn         9.6963228465       13.5098494815       13.5847526014
 Zn        14.6345301709       14.7070597114        9.8509929922
 Zn        14.7439747211       12.2971242201       12.5855970636
 Zn        12.6674352671       15.5529336929       12.7931898095
 Zn        14.6284925828        9.9857766174       15.3948557842
 Zn        12.6642858620       13.0597585373       15.7203319525
 Zn        10.7134117473       16.1841065669       15.8601086305
 Zn        17.7313403219       14.3293892572       11.9690198324
 Zn        15.6972791130       17.4982820519       12.2014807656
 Zn        17.7304605914       12.0342213211       14.6848916093
 Zn        15.8105334247       15.1530046759       14.9875116650
 Zn        13.7383343633       18.2031607742       15.1594004923
 Zn        15.6940805250       12.7676489559       17.7466137788
 Zn        13.7384194207       15.8106848530       17.9561693695
 Zn        11.0287443033       10.1149746993        8.3879471602
 Zn         8.8731519379       13.4521026933        8.6063986581
 Zn        11.0285212435        7.7909284145       11.1077565718
 Zn         8.4016103275       10.6372668191       11.1379946222
 Zn         6.9329841312       14.1550938256       11.5311368055
 Zn         8.8631016308        8.5634418926       14.3257112652
 Zn         6.9315601588       11.5872379738       14.5431480099
 Zn        13.7488079278       11.8984520390        7.4582967109
 Zn        11.5799528857       15.2511014134        7.6862142422
 Zn        13.8437728661        9.3951223030       10.1056493695
 Zn         9.4877270831       16.1596512222       10.5638768769
 Zn        13.7552108868        7.1646937065       12.9965883384
 Zn         7.6295442966       16.7013412574       13.6807586235
 Zn        11.5691592333        7.9437480159       16.2679657024
 Zn         9.4899391868       10.9510853290       16.6634964769
 Zn         7.6281538876       14.1005522457       16.7181966666
 Zn        16.5635861589       13.7057984917        7.0124693249
 Zn        14.3672990453       17.1136230078        7.2424192951
 Zn        16.8204488736       11.3458278428        9.3967862249
 Zn        12.4428429884       18.1244547747        9.8281949713
 Zn        16.8194651604        9.0090103456       12.1351137105
 Zn        10.5032861066       18.8240084366       12.8252566679
 Zn        16.5618426165        7.0690897980       14.8654173404
 Zn         8.8058927227       19.1266055433       15.7258335525
 Zn        14.3266492576        7.8486708138       18.1963783595
 Zn        12.4336491421       10.5708812011       18.7430430093
 Zn        10.4904427043       13.6172418174       18.9587472784
 Zn         8.8000819181       16.5597483712       18.7467296694
 Zn        19.5139531914       13.3671423967        9.0461449963
 Zn        17.5106484416       16.6285893529        9.3490392217
 Zn        15.3459171681       19.7665109300        9.4934300630
 Zn        19.7643762103       11.1384566268       11.5826060331
 Zn        13.6148833745       20.6763435405       12.2402245208
 Zn        19.5134295630        9.0169588684       14.1711328056
 Zn        11.7486048068       21.0701186243       15.0329891925
 Zn        17.5046321962        9.8221631878       17.3533589027
 Zn        11.6040322460       19.1408096985       18.3512087328
 Zn        15.3302596345       10.4976534847       20.4472966569
 Zn        13.6096118291       13.3705419820       20.8556684850
 Zn        11.7415180238       16.1865845162       20.7746082614
 Zn        20.6165171537       16.3356221500       11.5881402126
 Zn        18.6731940693       19.3595916138       11.8125311918
 Zn        20.8630556851       14.0829937016       14.0874490076
 Zn        19.0628857238       17.2717140645       14.4313072663
 Zn        16.8840274041       20.2404617504       14.5311988478
 Zn        20.6164329276       11.9814397638       16.7203423806
 Zn        19.0630351805       14.9377717571       17.1855674317
 Zn        17.0997818749       17.9889813359       17.3961275633
 Zn        14.9888532418       20.6603906308       17.2818002372
 Zn        18.6646478346       12.6825161596       19.6665236172
 Zn        16.8816782603       15.5398232750       20.0794556035
 Zn        14.9816243990       18.3478153983       20.0025245805
 Cl        10.9354930660       20.6948475505       19.6799745198
 Cl        15.0355873011       21.6427429920       10.6184640007
 Cl         9.8525826047       14.0567552195        6.6853857285
 Cl        15.0224061207       11.9285684920       22.0979493692
 Cl         6.7365806931        9.5932278400       10.2630408043
 Cl        22.1550130801       12.4596077340       15.1939169052
 Cl         6.8094906722       15.8550880177       18.0393505198
 Cl        16.0567796288       21.9832237418       15.8298023562
 Cl        12.9252537240        6.3528261999       17.3769185340
 Cl        16.0395817738       17.1255101191       21.5540488073
 Cl        12.9845950102       22.3748777993       13.6974657131
 Cl        11.8893082161       10.9041933888        6.4774649268
 Cl         9.8374220972        6.7706566680       15.2500616011
 Cl         5.7728624203       13.0962179592       15.7024777130
 Cl        18.0621230655       13.9431705445       21.3749984126
 Cl        21.1505254067        9.7425778147       12.8654075724
 Cl        14.9679006150        5.6363425726       14.3279342874
 Cl        21.1405068560       12.1904857835        9.9931146139
 Cl        18.0741527148       21.2610810512       12.7545050982
 Cl         5.7770249766       15.5390378841       12.8403959978
 Cl        11.8894647012        6.0343919371       12.1925390500
 Cl        12.9364914602       16.0691159753        5.9244044855
 Cl        14.9517896999       12.9488097835        5.7105328091
 Cl        22.1564587627       14.9089327655       12.3086636859
 Cl        12.9753261804       15.0883857820       22.2872645431
 Cl         6.8107193972       18.3049107209       15.1761167036
  S        12.9682342415       11.1668117711       11.6179697218
  S        10.8496762833       14.4734660480       11.8355949542
  S        10.8496709131       11.9316099097       14.8122655221
  S        16.0682913945       13.2197798868       10.8622189416
  S        13.9612704867       16.5187579649       11.0717821529
  S        16.0694441437       10.7528876706       13.7683864932
  S        14.0037811382       14.0104207689       14.0124678402
  S        11.8981534306       17.2409307840       14.1849869947
  S        13.9509748425       11.5109330472       16.9606177983
  S        11.8945349077       14.6992962477       17.1692203288
  S        17.1587045017       16.1012088473       13.2983554361
  S        17.1561571644       13.6396851977       16.2033636825
  S        15.1085417805       16.8338608499       16.4091972602
  S        11.9465253968        8.2937992467        9.1827623532
  S         9.8335506378       11.6352365857        9.5496054356
  S         7.6533256375       14.9525196885        9.6215263525
  S         9.8272452569        9.2063777004       12.3886766673
  S         7.8103054282       12.3730853413       12.6139789366
  S         7.6513538392        9.8272570373       15.6349856297
  S        15.0329251265       10.3761200704        8.4353284082
  S        12.9134076456       13.6535210429        8.7599158535
  S        10.7834415760       16.9488094041        8.8673985181
  S        15.0329283575        7.8999232750       11.3386634514
  S         8.7145136984       17.7047566605       12.0162542680
  S        12.9124028018        8.7371057177       14.5199718105
  S         8.8120029965       15.1492106418       14.9826485531
  S        10.7855988205        9.4123422079       17.7343087779
  S         8.7150695688       12.6232812563       17.9737615805
  S        18.1609304981       12.3745095483        7.6636680068
  S        16.0188301050       15.7111276823        7.9705265321
  S        13.8467588809       19.0506676960        8.0909451030
  S        18.1682262481        9.9738224595       10.5937603310
  S        11.8522807085       19.7683784561       11.2514870922
  S        18.1598292319        7.4793904208       13.4420222677
  S         9.7550748845       20.5205599932       14.3255680170
  S        16.0006043825        8.3154882719       16.6965180189
  S         9.8902896922       17.9180336852       17.3046737848
  S        13.8205607203        9.0070504991       19.9657316250
  S        11.8456656301       12.2316974391       20.1465752002
  S         9.7462296671       15.4017364657       20.3532110724
  S        19.1560220583       15.3320960354       10.1507825021
  S        17.0829179565       18.5611013329       10.3750398513
  S        19.1572245482       12.8614360792       13.0541540276
  S        15.0254107668       19.2723762628       13.4974156442
  S        19.1572943225       10.4021908541       15.9541348135
  S        12.9623772915       19.9559899362       16.5831967008
  S        17.0717943167       11.1446909623       19.1007155337
  S        15.0313140547       14.3548963267       19.2763774720
  S        12.9624779493       17.5259544129       19.4267148963
  S        20.3512928920       18.2275768884       12.6254485434
  S        20.3348667637       15.7191306924       15.4808585602
  S        18.2632782711       18.9507431349       15.6985812017
  S        20.3444434615       13.3074451960       18.4214182737
  S        18.2676116212       16.4771716335       18.6217488470
  S        16.2286069436       19.6938821110       18.8098668770
