    1532
 i =       23, E =    -12109.4112967763
 Pb         6.8566761642       12.8253461330       24.9868309758
 Pb         6.8982504893       16.0530513619       22.0565132037
 Pb         6.8973146041       16.0542857050       27.9143623851
 Pb         6.9082360395       19.0740865503       19.0223881318
 Pb         6.9656323179       19.0107591002       24.9831293890
 Pb         6.9071286010       19.0757747830       30.9471715173
 Pb         6.9047912719       22.1068753610       15.9554019970
 Pb         6.9702476537       22.0516773135       21.9908850053
 Pb         6.9700138119       22.0522832410       27.9702050117
 Pb         6.9070085248       22.1091662478       34.0108433059
 Pb         6.8744159031       24.9970211066       12.4347410454
 Pb         6.9636820254       24.9965513820       18.9207034167
 Pb         6.9789950776       24.9976636886       24.9828912194
 Pb         6.9642833659       24.9979625646       31.0460257629
 Pb         6.8761500908       24.9992171158       37.5363295432
 Pb         6.9032239339       27.8859966809       15.9562226542
 Pb         6.9680453443       27.9424524975       21.9917530723
 Pb         6.9680854117       27.9433030349       27.9705968458
 Pb         6.9061145297       27.8873803745       34.0110906013
 Pb         6.9034485211       30.9188329675       19.0234084301
 Pb         6.9599199703       30.9842744404       24.9842574337
 Pb         6.9038154588       30.9194076058       30.9479926348
 Pb         6.8891287461       33.9397354753       22.0580837272
 Pb         6.8889836230       33.9395561317       27.9155275763
 Pb         6.8398191750       37.1693599054       24.9880233720
 Pb         9.6638229655        9.6740547185       24.9868279506
 Pb         9.8224556919       12.8679388221       21.9707458828
 Pb         9.8192199979       12.8684716596       28.0015457248
 Pb         9.7990793261       15.9162752678       18.9110458613
 Pb         9.7842012563       15.8946883359       24.9847054906
 Pb         9.7933950944       15.9171712075       31.0593887012
 Pb         9.7937094430       18.9667059446       15.8569298094
 Pb         9.8305287822       18.9656141239       21.9578493664
 Pb         9.8290514224       18.9662821127       28.0104548762
 Pb         9.7879878221       18.9686871665       34.1128968779
 Pb         9.7813385791       22.0261288535       12.6740616577
 Pb         9.8228768340       21.9991710895       18.8918862237
 Pb         9.8386266121       21.9892682760       24.9834992645
 Pb         9.8213869247       22.0001370058       31.0748056518
 Pb         9.7777443379       22.0285028493       37.2934785929
 Pb         9.7933949738       24.9966978584       15.8011932314
 Pb         9.8440487338       24.9974416903       21.9504293572
 Pb         9.8430873094       24.9981934413       28.0176672441
 Pb         9.7922717794       24.9989970976       34.1652967346
 Pb         9.7794749724       27.9678719284       12.6754999517
 Pb         9.8207889214       27.9953876018       18.8932605348
 Pb         9.8363906425       28.0066003136       24.9841937934
 Pb         9.8201596060       27.9970644292       31.0748858713
 Pb         9.7773924408       27.9706555064       37.2934762465
 Pb         9.7887057495       31.0270216260       15.8591414368
 Pb         9.8253889524       31.0294580478       21.9597972273
 Pb         9.8248405675       31.0301910175       28.0107509968
 Pb         9.7862174276       31.0290705411       34.1127046532
 Pb         9.7905549297       34.0783416432       18.9142760710
 Pb         9.7748889397       34.1019823126       24.9864780312
 Pb         9.7883602514       34.0795990019       31.0594790915
 Pb         9.8085515151       37.1274730432       21.9737816308
 Pb         9.8072112464       37.1278788295       28.0016085445
 Pb         9.6447464653       40.3243357129       24.9881172697
 Pb        12.8148417822        6.8589470274       24.9882284631
 Pb        12.8602613004        9.8310917044       21.9717543584
 Pb        12.8563443967        9.8309596211       28.0003068230
 Pb        12.8983702163       12.9048283154       18.9473964658
 Pb        12.9347453207       12.9463440718       24.9828320669
 Pb        12.8913251648       12.9065161931       31.0215587703
 Pb        12.8765788386       15.9402791116       15.8965295869
 Pb        12.9181390229       15.9347580646       21.9517525333
 Pb        12.9138939946       15.9344666846       28.0117334099
 Pb        12.8655778193       15.9429425895       34.0708833595
 Pb        12.8707276346       18.9826490184       12.8400045078
 Pb        12.9347118223       18.9721162087       18.9126821431
 Pb        12.9597526651       18.9841573576       24.9794236590
 Pb        12.9305913160       18.9737649090       31.0465583251
 Pb        12.8634738073       18.9861312461       37.1254943223
 Pb        12.7023402866       22.0247280611        9.7526896409
 Pb        12.8840714101       22.0016817077       15.8425172602
 Pb        12.9486118788       21.9869068405       21.9333416383
 Pb        12.9458355603       21.9873413572       28.0252588460
 Pb        12.8770448756       22.0036327327       34.1157585441
 Pb        12.7009714665       22.0314108343       40.2101164413
 Pb        12.4563074628       24.9986351714        6.8540904035
 Pb        12.7631502152       24.9962217491       12.7307532878
 Pb        12.9331960337       24.9969664819       18.8844268365
 Pb        12.9617423272       24.9989034699       24.9782583874
 Pb        12.9315967241       24.9992835908       31.0705409780
 Pb        12.7575454543       25.0001733380       37.2204757533
 Pb        12.4698477846       25.0013484197       43.1214490790
 Pb        12.7004896432       27.9693038491        9.7544937819
 Pb        12.8811206916       27.9906609758       15.8451838427
 Pb        12.9463811042       28.0089529218       21.9355491034
 Pb        12.9443349326       28.0108799571       28.0257685983
 Pb        12.8764780763       27.9956132386       34.1156103011
 Pb        12.7011364118       27.9703288788       40.2096339099
 Pb        12.8659867809       31.0107093837       12.8447466386
 Pb        12.9302131942       31.0219424384       18.9176067942
 Pb        12.9553610575       31.0139259889       24.9819014158
 Pb        12.9283014591       31.0248070359       31.0467521641
 Pb        12.8629721732       31.0142242218       37.1247556068
 Pb        12.8666153400       34.0534114029       15.9026623905
 Pb        12.9087344088       34.0623384000       21.9573227471
 Pb        12.9069921799       34.0643191823       28.0128123052
 Pb        12.8630498973       34.0561229931       34.0702513611
 Pb        12.8864947074       37.0900615790       18.9532567571
 Pb        12.9220426263       37.0516097191       24.9861229862
 Pb        12.8841487564       37.0915441883       31.0213735763
 Pb        12.8400553150       40.1668509112       21.9755280505
 Pb        12.8390475250       40.1675743256       28.0009032712
 Pb        12.7933504499       43.1363316468       24.9888983984
 Pb        16.0447547323        6.9013203954       22.0571037575
 Pb        16.0418842148        6.9015283628       27.9131718048
 Pb        15.9120825398        9.8090889792       18.9134753735
 Pb        15.8836342174        9.7926568031       24.9837317993
 Pb        15.9016634715        9.8110108023       31.0535641935
 Pb        15.9361043655       12.8842651351       15.8976852833
 Pb        15.9229696289       12.9291506483       21.9522891037
 Pb        15.9158995403       12.9301739054       28.0085068865
 Pb        15.9216932639       12.8911796891       34.0670553271
 Pb        15.9316917438       15.9370051164       12.8376534459
 Pb        15.9003669039       15.9103380605       18.8911382153
 Pb        15.8992996233       15.9109855098       24.9799573910
 Pb        15.8903593433       15.9129276062       31.0672222432
 Pb        15.9170148431       15.9430329160       37.1232976394
 Pb        15.8875625895       18.9614603372        9.7627830880
 Pb        15.8896866823       18.9418015638       15.8525680817
 Pb        15.9099136989       18.9623739639       21.9415866863
 Pb        15.9063340647       18.9637633384       28.0170708165
 Pb        15.8771112192       18.9471186690       34.1056529495
 Pb        15.8795815705       18.9706040043       40.2000901911
 Pb        15.9874729364       22.1071860357        6.8889623333
 Pb        15.8770949700       21.9988361043       12.8520610956
 Pb        15.9003151059       21.9809304824       18.9027925114
 Pb        15.9215893424       21.9790332585       24.9796637757
 Pb        15.8964442953       21.9838549683       31.0551903479
 Pb        15.8669710548       22.0037371016       37.1072510354
 Pb        15.9811168507       22.1096620445       43.0921054101
 Pb        15.8283163675       24.9961838004        9.7714396215
 Pb        15.8662366857       24.9954300917       15.8396193808
 Pb        15.9161925681       24.9975859281       21.9381906303
 Pb        15.9135861416       24.9991445005       28.0249624275
 Pb        15.8600775876       25.0001378689       34.1240385806
 Pb        15.8294600363       25.0014188522       40.1972784371
 Pb        15.9862481300       27.8874964290        6.8901787489
 Pb        15.8733527580       27.9909655853       12.8558716280
 Pb        15.8981860144       28.0128171072       18.9066478977
 Pb        15.9200856089       28.0186921537       24.9815032993
 Pb        15.8957083349       28.0156794954       31.0552378041
 Pb        15.8669615876       27.9976214510       37.1066040990
 Pb        15.9815752861       27.8947184820       43.0911164085
 Pb        15.8801352967       31.0308171038        9.7692399706
 Pb        15.8825725798       31.0484249128       15.8599768750
 Pb        15.9052606445       31.0332477111       21.9468311843
 Pb        15.9032096898       31.0348504487       28.0180894895
 Pb        15.8761251929       31.0531669748       34.1045051796
 Pb        15.8796904467       31.0324649722       40.1981817157
 Pb        15.9203746457       34.0555884683       12.8509956841
 Pb        15.8907647670       34.0841602484       18.9027181639
 Pb        15.8919384629       34.0873626832       24.9846689867
 Pb        15.8870820062       34.0870115865       31.0663546691
 Pb        15.9167175054       34.0585419782       37.1205713592
 Pb        15.9221595550       37.1073089439       15.9099865364
 Pb        15.9099291941       37.0684065118       21.9618379474
 Pb        15.9070665261       37.0693432229       28.0089280461
 Pb        15.9187396958       37.1091223622       34.0639839341
 Pb        15.8936507554       40.1878995151       18.9249776438
 Pb        15.8644088719       40.2063475997       24.9874117143
 Pb        15.8918183006       40.1886746338       31.0508986491
 Pb        16.0230276020       43.0976959343       22.0647737314
 Pb        16.0226296648       43.0971404900       27.9117754363
 Pb        19.0698691800        6.9128321603       19.0271128232
 Pb        18.9964618730        6.9697030033       24.9782800695
 Pb        19.0569564959        6.9146101286       30.9373003381
 Pb        18.9659376694        9.8063557310       15.8626321823
 Pb        18.9568151657        9.8394962467       21.9592145357
 Pb        18.9497380077        9.8408407340       28.0035879647
 Pb        18.9350621960        9.8107054716       34.0940497223
 Pb        18.9816952544       12.8821629169       12.8430485300
 Pb        18.9659012947       12.9460358707       18.9134051788
 Pb        18.9711336371       12.9729494557       24.9732499777
 Pb        18.9538597296       12.9549968360       31.0303244064
 Pb        18.9648912252       12.9068865742       37.1016873827
 Pb        18.9593244103       15.8984874047        9.7644292971
 Pb        18.9357687201       15.9011684348       15.8530669250
 Pb        18.9532444945       15.9203012413       21.9392688271
 Pb        18.9475303114       15.9229365001       28.0118680773
 Pb        18.9166851746       15.9115475817       34.0955342866
 Pb        18.9297530177       15.9182529594       40.1968541300
 Pb        19.0579817536       19.0663915033        6.8909082790
 Pb        18.9493237256       18.9569786622       12.8965426519
 Pb        18.9681313322       18.9757055058       18.9290498987
 Pb        18.9741313031       18.9857801960       24.9724072770
 Pb        18.9619067773       18.9831520895       31.0167761741
 Pb        18.9352803799       18.9735419504       37.0556479184
 Pb        19.0433724039       19.0756658545       43.0912557750
 Pb        18.9237143005       21.9933418083        9.8004853492
 Pb        18.9363331082       21.9764113479       15.8701221354
 Pb        18.9665090965       21.9770310829       21.9415019199
 Pb        18.9628922198       21.9790930402       28.0144217018
 Pb        18.9249248912       21.9826359175       34.0883398438
 Pb        18.9166308254       22.0001268852       40.1689348361
 Pb        18.9512227113       24.9936632615        6.9507883698
 Pb        18.9167830087       24.9919186000       12.9062592132
 Pb        18.9604187931       24.9953767461       18.9302140828
 Pb        18.9727992719       24.9993399549       24.9748022706
 Pb        18.9550750518       25.0000952446       31.0203249397
 Pb        18.9035548567       25.0009816303       37.0508876014
 Pb        18.9439902837       25.0024682576       43.0331508963
 Pb        18.9193075218       27.9981374096        9.8042445529
 Pb        18.9330400902       28.0112426250       15.8763114772
 Pb        18.9653642956       28.0178304987       21.9458270158
 Pb        18.9626280109       28.0199149955       28.0152604151
 Pb        18.9250313505       28.0183419907       34.0875420227
 Pb        18.9169319927       28.0033951805       40.1676167964
 Pb        19.0472803735       30.9279911211        6.8956940988
 Pb        18.9414855417       31.0243471883       12.9112833847
 Pb        18.9654449000       31.0147320166       18.9416251830
 Pb        18.9735538399       31.0130476801       24.9781210658
 Pb        18.9617894347       31.0170993623       31.0167332788
 Pb        18.9356552409       31.0284969064       37.0532580000
 Pb        19.0446955851       30.9299865094       43.0876280058
 Pb        18.9311562134       34.0885464055        9.7772777162
 Pb        18.9212408249       34.0851139317       15.8739170662
 Pb        18.9467381825       34.0753054010       21.9524241354
 Pb        18.9444781777       34.0763286183       28.0132444976
 Pb        18.9159642160       34.0891512710       34.0920265718
 Pb        18.9303409163       34.0857603168       40.1915485314
 Pb        18.9680245770       37.0968391872       12.8787362201
 Pb        18.9545586553       37.0451429155       18.9389913322
 Pb        18.9669108099       37.0259889967       24.9826081352
 Pb        18.9509594867       37.0453583684       31.0274718740
 Pb        18.9650977715       37.0956763651       37.0943044140
 Pb        18.9347969310       40.1908612462       15.8910867966
 Pb        18.9377689070       40.1598866018       21.9727579013
 Pb        18.9363157846       40.1595476484       28.0005539314
 Pb        18.9323182480       40.1903124040       34.0842985613
 Pb        19.0486646131       43.0878482778       19.0478016845
 Pb        18.9835616030       43.0301683807       24.9861096855
 Pb        19.0474988105       43.0856891692       30.9281849536
 Pb        22.1056949414        6.9133024696       15.9631486844
 Pb        22.0414207479        6.9749912970       21.9842024780
 Pb        22.0327834535        6.9722874776       27.9481893930
 Pb        22.0736733667        6.9024110090       33.9623220693
 Pb        22.0289914983        9.8007649730       12.6833327244
 Pb        21.9957709247        9.8341346495       18.8991855534
 Pb        21.9812267752        9.8485971747       24.9816811701
 Pb        21.9839586751        9.8397839757       31.0474643819
 Pb        21.9854466483        9.8299932328       37.1464686149
 Pb        22.0274497541       12.7218815468        9.7595104672
 Pb        22.0001540830       12.9006365164       15.8464633092
 Pb        21.9795693196       12.9619337654       21.9294764237
 Pb        21.9711336967       12.9653188371       28.0075744780
 Pb        21.9732269652       12.9281513542       34.0736546288
 Pb        21.9860336435       12.8678166407       40.1785925913
 Pb        22.1075667871       16.0065971208        6.8932524914
 Pb        21.9975838252       15.8940631913       12.8548316599
 Pb        21.9772193676       15.9118617806       18.9019232443
 Pb        21.9715691659       15.9349557709       24.9726704845
 Pb        21.9679345940       15.9230196682       31.0368238612
 Pb        21.9706115434       15.9310391130       37.0768253689
 Pb        22.0718754563       16.0526582892       43.1038691951
 Pb        21.9899468537       18.9397501553        9.8024248922
 Pb        21.9748704633       18.9460409699       15.8708918073
 Pb        21.9727638570       18.9756747256       21.9400048464
 Pb        21.9684231710       18.9793062892       28.0096184559
 Pb        21.9606670887       18.9618952059       34.0791656424
 Pb        21.9756936368       18.9635899877       40.1631428666
 Pb        22.0293633179       22.0312779672        6.9590449068
 Pb        21.9677616740       21.9703765489       12.9169066421
 Pb        21.9704475237       21.9735101165       18.9344432571
 Pb        21.9744239396       21.9811962360       24.9758427121
 Pb        21.9639435679       21.9794156625       31.0168021027
 Pb        21.9510781316       21.9845931696       37.0380633052
 Pb        22.0039640771       22.0471882857       43.0260638524
 Pb        21.9754573522       24.9971496318        9.8251298355
 Pb        21.9640671093       24.9927736433       15.8913687300
 Pb        21.9732927823       24.9975555923       21.9478163429
 Pb        21.9693396691       25.0001541602       28.0080381627
 Pb        21.9534371849       25.0011295899       34.0672875786
 Pb        21.9745731836       25.0022063862       40.1456912670
 Pb        22.0223207487       27.9397023670        6.9578110680
 Pb        21.9625594481       28.0061313578       12.9247819948
 Pb        21.9697514392       28.0179965823       18.9417049407
 Pb        21.9753591685       28.0183071200       24.9789999725
 Pb        21.9647787094       28.0221286297       31.0164888767
 Pb        21.9518086351       28.0178575904       37.0364468163
 Pb        22.0047826724       27.9580833431       43.0239747190
 Pb        21.9808320450       31.0400817799        9.8135684680
 Pb        21.9700417739       31.0346906804       15.8882923288
 Pb        21.9724649360       31.0191252597       21.9502405085
 Pb        21.9695347434       31.0210012779       28.0106465747
 Pb        21.9617950807       31.0400699332       34.0758295286
 Pb        21.9763838296       31.0407558016       40.1586354373
 Pb        22.0780495189       33.9581483659        6.8879143033
 Pb        21.9768512972       34.0676467855       12.8966662499
 Pb        21.9726434858       34.0778490605       18.9301639419
 Pb        21.9721276485       34.0646691319       24.9818979480
 Pb        21.9693896906       34.0784477494       31.0335656960
 Pb        21.9720473931       34.0709828236       37.0695861920
 Pb        22.0737043126       33.9543515543       43.0951265319
 Pb        21.9877158957       37.1442190534        9.8053035205
 Pb        21.9792497249       37.0730042113       15.8987060222
 Pb        21.9746225860       37.0342928409       21.9537543153
 Pb        21.9714640610       37.0350650722       28.0075790252
 Pb        21.9737893393       37.0730231076       34.0644030590
 Pb        21.9866911648       37.1366832590       40.1661796537
 Pb        21.9891970377       40.1776887978       12.8443816569
 Pb        21.9829918728       40.1620232833       18.9370841892
 Pb        21.9689230624       40.1488031317       24.9854251760
 Pb        21.9807298653       40.1605115942       31.0340224163
 Pb        21.9863166771       40.1722133657       37.1289608260
 Pb        22.0735167382       43.1062380820       16.0319723157
 Pb        22.0347146524       43.0289150091       22.0195093676
 Pb        22.0324104161       43.0279623841       27.9477968361
 Pb        22.0722218607       43.0994908694       33.9430180054
 Pb        25.0000863741        6.8894851551       12.4555535501
 Pb        24.9988911453        6.9702106028       18.9247679777
 Pb        24.9981847908        6.9827851047       24.9694003834
 Pb        24.9969526119        6.9685445168       30.9988453407
 Pb        24.9980258915        6.8620763099       37.1909579533
 Pb        43.1248379601       37.5227870265       24.9839444163
 Pb        24.9999205603        9.8087208713       15.8125015239
 Pb        24.9989405762        9.8538023762       21.9572779541
 Pb        24.9978552459        9.8507460094       28.0152108130
 Pb        24.9975033623        9.7912582830       34.1204054957
 Pb        24.9993020167        9.6701633161       40.3404511262
 Pb        25.0019215189       12.4816222680        6.8610140563
 Pb        25.0010990065       12.7860315165       12.7353106762
 Pb        25.0002540613       12.9492241112       18.8805437993
 Pb        24.9995632787       12.9795826519       24.9591048428
 Pb        24.9973237756       12.9722210913       31.0136869614
 Pb        24.9973156199       12.9436581492       37.0620896243
 Pb        25.0012220740       12.8227231899       43.1529800438
 Pb        25.0020485549       15.8511166987        9.7753423359
 Pb        25.0011301842       15.8806748729       15.8401153608
 Pb        25.0000499726       15.9287438534       21.9323837974
 Pb        24.9980532996       15.9343961348       28.0096112445
 Pb        24.9961081002       15.9083144259       34.0919362778
 Pb        24.9982841911       15.8905341609       40.2131460480
 Pb        25.0028618353       18.9660432714        6.9528126686
 Pb        25.0018057857       18.9275341785       12.9066402267
 Pb        25.0011407395       18.9700709385       18.9266393200
 Pb        25.0001055548       18.9868908407       24.9662474719
 Pb        24.9955976704       18.9846592637       31.0038347942
 Pb        24.9925927406       18.9791203343       37.0267644391
 Pb        24.9953792077       19.0042958074       43.0338351289
 Pb        25.0025676703       21.9890673712        9.8234273935
 Pb        25.0021297667       21.9663383378       15.8894725883
 Pb        25.0012316237       21.9775283794       21.9449621083
 Pb        24.9979526917       21.9808932049       28.0036510260
 Pb        24.9927538029       21.9772617766       34.0611545099
 Pb        24.9988057687       21.9870908958       40.1510902142
 Pb        25.0033814900       24.9868545719        6.9681243638
 Pb        25.0022514713       24.9821499547       12.9329549666
 Pb        25.0022591312       24.9930667023       18.9408246188
 Pb        25.0013293884       25.0002455870       24.9702142746
 Pb        24.9933368557       25.0009409725       31.0001065444
 Pb        24.9820783640       25.0014207162       37.0159211994
 Pb        24.9894448365       25.0029322709       43.0161994589
 Pb        25.0032133105       28.0172331262        9.8254064958
 Pb        25.0038364011       28.0169742281       15.9004289207
 Pb        25.0042583462       28.0175679835       21.9517519865
 Pb        25.0009589252       28.0205126499       28.0044063817
 Pb        24.9945336337       28.0256426230       34.0593659663
 Pb        24.9997352669       28.0179332747       40.1485751928
 Pb        25.0039034209       30.9906438984        6.9557448787
 Pb        25.0042230603       31.0145167805       12.9389043792
 Pb        25.0065319109       31.0132516353       18.9494745484
 Pb        25.0089535521       31.0136694734       24.9751104970
 Pb        25.0007529092       31.0171615638       31.0027330518
 Pb        24.9951658442       31.0235217523       37.0217962741
 Pb        24.9970635178       31.0018686881       43.0274983792
 Pb        25.0035880096       34.1175415092        9.7705817533
 Pb        25.0055772531       34.0925308590       15.8820712803
 Pb        25.0092933094       34.0660168414       21.9532455931
 Pb        25.0069665061       34.0671116165       28.0094508626
 Pb        25.0007716420       34.0940823661       34.0838130007
 Pb        25.0005052966       34.1138041691       40.2031978067
 Pb        25.0027853518       37.1887813303        6.8514881301
 Pb        25.0040215081       37.0627036550       12.9169991872
 Pb        25.0095126789       37.0302683613       18.9501302601
 Pb        25.0202060398       37.0211443065       24.9785388938
 Pb        25.0061526125       37.0296587218       31.0079982016
 Pb        25.0008796435       37.0591688583       37.0483382164
 Pb        25.0030804789       37.1836402522       43.1355155140
 Pb        25.0017643017       40.3403607756        9.6482711225
 Pb        25.0030954980       40.2145535946       15.8698454637
 Pb        25.0028180994       40.1532092828       21.9678520793
 Pb        25.0012870558       40.1527609619       28.0023228233
 Pb        25.0010218437       40.2105121194       34.1005910042
 Pb        25.0010093441       40.3324740963       40.3206366962
 Pb        24.9997757857       43.1567413339       12.8026554748
 Pb        25.0061515797       43.0353432484       18.9820708461
 Pb        25.0123911174       43.0177317963       24.9827347918
 Pb        25.0039987736       43.0321754802       30.9850966861
 Pb        24.9988272571       43.1432380099       37.1688275829
 Pb        27.8928114513        6.9126610985       15.9627496261
 Pb        27.9557643078        6.9732375848       21.9834826970
 Pb        27.9618566400        6.9699457135       27.9471449450
 Pb        27.9204225255        6.9004947890       33.9614614621
 Pb        27.9719724197        9.8005944323       12.6832496306
 Pb        28.0031830528        9.8332075299       18.8989771059
 Pb        28.0157365558        9.8464394432       24.9809172059
 Pb        28.0115997306        9.8374705179       31.0461506547
 Pb        28.0111228931        9.8274778317       37.1452586516
 Pb        27.9758420928       12.7221830566        9.7598827510
 Pb        28.0011235441       12.9003488484       15.8464748778
 Pb        28.0202500537       12.9606773091       21.9288830316
 Pb        28.0251554805       12.9629689786       28.0057005977
 Pb        28.0202124665       12.9249008305       34.0719638208
 Pb        28.0122042656       12.8645186789       40.1776456674
 Pb        27.8977817335       16.0070483653        6.8941315122
 Pb        28.0055346078       15.8942373045       12.8553713922
 Pb        28.0242692865       15.9114163932       18.9018913673
 Pb        28.0275067069       15.9334759793       24.9711750589
 Pb        28.0266249584       15.9205483974       31.0339277314
 Pb        28.0219913809       15.9264900765       37.0743911706
 Pb        27.9271987316       16.0502940550       43.1033421509
 Pb        28.0146877505       18.9401073143        9.8035267139
 Pb        28.0281525688       18.9463878046       15.8715525085
 Pb        28.0282589271       18.9756400445       21.9393015777
 Pb        28.0271040043       18.9780188761       28.0060338368
 Pb        28.0273180991       18.9582721916       34.0746004959
 Pb        28.0185988879       18.9578612242       40.1609049083
 Pb        27.9762432132       22.0319943868        6.9607588182
 Pb        28.0362967048       21.9711862860       12.9181737064
 Pb        28.0331860215       21.9745327528       18.9346975492
 Pb        28.0266086068       21.9820995633       24.9731283875
 Pb        28.0279778398       21.9785438390       31.0107392635
 Pb        28.0280373500       21.9794613035       37.0321668069
 Pb        27.9676074873       22.0410480412       43.0276826594
 Pb        28.0301061237       24.9980499884        9.8268961645
 Pb        28.0412081966       24.9946119655       15.8925604087
 Pb        28.0304382864       25.0005616302       21.9468414921
 Pb        28.0261449741       25.0028928215       28.0017992118
 Pb        28.0296608502       25.0026872773       34.0582431701
 Pb        28.0328429862       25.0030418877       40.1464812193
 Pb        27.9846308121       27.9406112609        6.9596344463
 Pb        28.0442383871       28.0082116228       12.9265663973
 Pb        28.0387812135       28.0219589443       18.9425755147
 Pb        28.0332688356       28.0245957043       24.9759876481
 Pb        28.0320760299       28.0273463721       31.0091841488
 Pb        28.0303241757       28.0256563023       37.0294595791
 Pb        27.9688672856       27.9662646387       43.0249812487
 Pb        28.0258442699       31.0414772754        9.8152345342
 Pb        28.0389143444       31.0379509597       15.8900842715
 Pb        28.0398634168       31.0255281322       21.9505963537
 Pb        28.0369590554       31.0281134293       28.0050358846
 Pb        28.0324482553       31.0467328734       34.0691731265
 Pb        28.0209037433       31.0480481628       40.1549616180
 Pb        27.9293784854       33.9590649162        6.8892266858
 Pb        28.0323940879       34.0696370707       12.8992830408
 Pb        28.0429646544       34.0828851586       18.9330973057
 Pb        28.0484143959       34.0739651315       24.9798040485
 Pb        28.0392519649       34.0848699318       31.0264921279