    1259
 i =      111, E =    -34744.3632505841
 Cl        18.3391147303       43.8964617701       18.3894493704
 Cl        24.4285468302       43.6974267262       24.3960043839
 Te        40.9346774201       14.6411156995       24.6655194546
 Cl        43.6975130309       18.1504320157       24.6452300471
 Cd        32.8414673426       19.4500112001       42.3046292589
 Te        17.9743100730       34.2910221520       27.7529753450
 Te        21.2029633231       37.5736884694       27.7801697463
 Te        24.4257002752       40.8861782765       27.7153543095
 Cl        27.5108272687       43.7268553016       27.4681723499
 Te        17.9319087533       31.0681675742       17.9101677250
 Te        33.9735108234       41.1902851023       30.9930687392
 Te         8.1091422181       24.1476186963       14.6611871478
 Te        21.2309958586       31.0346835173       21.1770507320
 Cd        36.1721028912       19.5954963855       13.0460244645
 Te        21.2051516777       34.3036940333       17.8634338938
 Cd        32.8310314116       42.3072577105       19.3553350636
 Te        24.4929704725       14.6978595653       27.7842417320
 Cd         6.9403816330       28.7562794738       13.6546174658
 Te        31.1202991634       11.3551967213       17.9493889281
 Cd        13.4641224022       35.5403271158       13.2054133298
 Te        34.4779439593       14.6298119668       17.9263262528
 Cd        20.1958501835       42.0589113258       13.6341661964
 Te        41.6208494601       29.6813788389       13.4211185944
 Te        21.2336947962       24.4573027151       14.6802956486
 Cl         5.2748119347       27.5744468405       21.3958433702
 Te         8.1276752311       30.9584594915       21.2649182500
 Te        24.5291706908       37.5685469586       17.8984879927
 Te        14.8593595796       11.2944561900       34.6033731476
 Te        17.9371050022       14.6303367663       34.4716129728
 Te        21.2445614923       17.9138035688       34.3596551817
 Te        24.4957821797       21.2220864754       34.2973767153
 Te        27.7842183577       24.5245361875       34.2929460556
 Te        31.0659120784       27.8202137594       34.3358085246
 Te        34.3746438350       31.1295327228       34.3667969300
 Te        27.7760755244       27.7931121563       37.5684071186
 Cd        42.2125332393       27.1015206668       14.1264839147
 Cd         6.7581121908       25.6538856573       16.5938452542
 Cd         9.7806304869       29.3981873109       16.2433089513
 Cd        12.9887038089       32.7351196888       16.1587949334
 Cd        16.2618909135       36.0027045899       16.1544480875
 Cd        19.5927560984       39.2077323457       16.1862738323
 Cd        23.2915002254       42.2296752802       16.5724309170
 Cd        25.4726062113        6.1960040685       12.7489782702
 Te        14.6634361091       17.9123170289       27.8005040201
 Te        37.7037768134       34.6028592961       34.1403173795
 Cl        24.3538582589       43.7168353371       30.8097006793
 Te         7.6511930629       21.6774529679       37.5146549025
 Te        11.2287382690       24.7121631384       37.8193197240
 Te        14.7207317348       27.7927243105       37.4926115479
 Te        17.7616419456       31.2839672037       37.6722973922
 Cd        42.1281874738       13.6548559223       20.1612485329
 Cl        21.6038218143       15.0474846400       43.7193282517
 Cl        24.6758852493       18.1510540778       43.7118675729
 Te        31.0550192072       31.1044698847       37.6048034526
 Cd        22.8586222792       32.6739324396       19.5195312017
 Cd         6.6221437051       22.6843055108       19.6026912216
 Cd         9.8035511144       26.0596655273       19.6030427073
 Cd        13.0613592973       29.4025914690       19.5246077950
 Cd        16.2610994408       32.7312777231       19.5154935295
 Cd        19.5967942541       35.9372714591       19.5184017484
 Cd        22.9295877979       39.1874585139       19.5849900006
 Cd        26.3086890456       42.3763995694       19.5281748913
 Te        17.9566188622       37.5992644025       17.8722389002
 Te        17.9694764675       21.1751707116       27.7854526474
 Cd        36.1717400476        9.8122925679       22.9548766756
 Cl        27.8420699872       21.1676668609       43.6645065521
 Cl        30.8255080170       24.3807867704       43.6665572431
 Cl        34.2468879322       27.0747583224       43.6307247509
 Cd         6.6993282924       32.8333648628       29.5583618446
 Cd        35.1156178774       21.9580416254       42.5567109777
 Cd        32.9952262105       12.8308104606       10.5230306220
 Cd        10.0531221460       13.1489489888       19.3532362794
 Te        17.9278003346       11.3032929110       37.5652540707
 Cd        10.0550676201       35.8445307870       29.6394965667
 Cd         6.6231959150       19.6019653947       22.6937897995
 Cd         9.8310744681       22.8464335416       22.8472731747
 Cd        13.0749902468       26.1322773915       22.8583698400
 Cd        16.3266763620       29.4129454459       22.7970393214
 Cd        19.5879902497       32.6715207972       22.7966750681
 Cd        22.8671388594       35.9279300566       22.8532040183
 Cd        26.1386968389       39.1822691896       22.7854111826
 Cd        29.4126020065       42.3883086382       22.6270039207
 Te        21.2855261694       40.8440835606       17.9434497122
 Te        21.3376737206       14.6285074591       37.7585172952
 Te        24.5517318228       17.9383506453       37.5848017573
 Te        27.7997589052       21.2085869153       37.5643153778
 Te        31.0562054029       24.4797831094       37.5934760713
 Te        34.3506225741       27.7472325396       37.6467489368
 Te        37.7443572630       30.8368322255       37.7305081242
 Te        24.5095558660       11.3990102572       17.9661503778
 Cd        28.8398549542       13.6336702671        7.0224842303
 Te        21.2113353648       34.3435774114       37.4341731849
 Cd        13.1553198802       38.9448409439       29.6409972391
 Cd         6.7670895799       16.6454196996       25.7255078184
 Cd         9.8255235256       19.6215921626       26.0718570986
 Cd        13.0735873442       22.8618601875       26.1375591049
 Cd        16.3277747011       26.1311420763       26.1324138811
 Cd        19.5919595361       29.4075089957       26.1172316716
 Cd        22.8635520080       32.6725523909       26.1244781801
 Cd        26.1354008104       35.9399904109       26.1167399904
 Cd        29.3878764699       39.1955544810       25.9909032440
 Cd        32.4954326593       42.4712366344       25.7293191487
 Cd        39.9500170383       19.1764241321       11.0273181748
 Te        24.3148751814       37.8345569525       37.7573639527
 Te        27.5687554428       41.3028321952       37.5535269047
 Te        21.2094801839       14.6724264519       11.5583033059
 Cl         5.0807609232       18.4101112944       30.5614498745
 Te        34.1726158247       34.6296438110       37.6422317254
 Cd        16.1666878377       42.3090183364       29.5548987000
 Te        21.2325112294       37.4889855189       34.2704504307
 Te        24.3391744305       40.9501426961       34.3182610551
 Te        21.3881091691       18.0131710631       40.9147786908
 Cd         7.0172190646       13.6481032938       28.8356495876
 Cd         9.7949492988       16.3320233986       29.4171423078
 Cd        13.0566748784       19.5923689146       29.4338832750
 Cd        16.3274464836       22.8003949388       29.4192854380
 Cd        19.5941314020       26.1263173932       29.4042063535
 Cd        22.8712104845       29.4071442065       29.4035979389
 Cd        26.1433002547       32.6854509599       29.4047332196
 Cd        29.4024357586       35.9667426297       29.3901351208
 Cd        32.6697658329       39.3471004343       29.3992081370
 Cd        35.2878975689       42.1337363848       28.8150895154
 Cl        24.6320412682       43.6632989366       18.1105038520
 Te        21.0943965090       40.8329896044       31.0824788766
 Te        21.2311397822       24.4901680033       27.7686153672
 Te         8.1474453707       21.3265522017       31.0404262435
 Te        11.4238110913       24.5340063386       31.0883344475
 Te        14.7071914375       27.7647434993       31.0314209839
 Te        17.9853084490       31.0169994030       31.0103312508
 Te        21.2224252656       34.3128019691       31.0144583386
 Cd        13.0651025052       16.4284773862       19.5055394774
 Cd        16.3340419824       19.6025867457       19.6038794637
 Cd        10.6076175444       12.7998704537       33.0040121012
 Cd        12.9918611321       16.2620460455       32.8378889523
 Cd        16.3092544114       19.5212637191       32.7603320349
 Cd        19.5915654064       22.8586561300       32.6751903298
 Cd        22.8723052659       26.1395708649       32.6713109705
 Cd        26.1452601409       29.4765223023       32.6792611240
 Cd        29.4775371414       32.7692676074       32.6866018284
 Cd        32.7489167178       36.1730579289       32.7309480356
 Cd        35.8413399019       39.4363437155       32.1828556996
 Te        21.2513903593       11.4243257047       27.8025379276
 Te        21.4857599167       11.4222942744       41.3085240707
 Te        24.7216297144       14.6319240943       40.9465448791
 Te        27.9227867117       17.9091524457       40.8240377217
 Te        31.0299183566       21.0542460001       40.8079959427
 Te        34.2988638517       24.2202086267       40.8856971371
 Te        37.5101804203       27.3420794459       41.2956645854
 Te        17.9613534443       27.7665674116       21.1784516019
 Cd        12.7528461474       26.0498005020        9.7199584658
 Te        37.5847191215       17.9418936170       24.5388046498
 Cd        19.5947591853       22.8692484898       19.5891159815
 Cd        13.4513715136       13.3931772635       35.7688219565
 Cd        16.2639892933       16.2562390535       36.1708287750
 Cd        19.6059835788       19.5996604877       35.9425057502
 Cd        22.8745024599       22.8665309338       35.9335931484
 Cd        26.1367602887       26.1412146909       35.9269493559
 Cd        29.4060682580       29.4771258024       35.9384069974
 Cd        32.7407561459       32.8420994650       36.0066915209
 Cd        35.6057502262       35.7750240493       35.5410087497
 Cd        16.3387763905       29.3943883621        9.6451201830
 Cl        27.4219459657       43.7483988673       33.9058723852
 Te        11.3397277562       34.3531163992       21.2446051129
 Cd        17.1457251339        6.6193871373       31.9285120588
 Cd        32.7638940020       19.5902996019        9.7369499181
 Te        24.5069091459       27.7746276027       27.7656774029
 Te        24.4611918481       37.6017049017       31.0187225149
 Te        27.6425853413       40.8911173653       30.9472510647
 Cl        38.2910227309       34.5497854260       38.2535488784
 Te        24.4903267123       17.9178368771       11.4178989105
 Te        27.7972884100       21.2109878507       11.4285246383
 Cd        22.8653958779       26.1332491362       19.5822915503
 Cd        16.8163503730       13.1516729664       39.3754271440
 Cd        19.5938208151       16.3328572328       39.2911049191
 Cd        22.9557726532       19.6116704596       39.1936889277
 Cd        26.1763399372       22.8655064445       39.1846234458
 Cd        29.3823041744       26.1188368615       39.1884855584
 Cd        32.6710785456       29.4183366905       39.2056477637
 Cd        36.1974441921       33.0065027571       38.3909575803
 Cd        19.5886702608       32.6563243037        9.6519623278
 Te        31.0763001668       24.5061875728       11.4050933622
 Cd         6.6961243934       19.4314091133       16.1639574593
 Te        27.7666640401       17.9666885414       27.7598344967
 Cd         6.4440442683       13.8848430442       21.9566806112
 Cd         9.8883609346       16.4050509311       22.6444763149
 Cd        22.9429486256       36.1832801938        9.7132705052
 Cd        13.0814442933       19.5958251214       22.8626840496
 Cd        26.1288703977       29.4047557444       19.5863700030
 Te        31.0323649147       21.2400346795       27.7621466335
 Te        11.4259291147       11.4234544290       17.6202947908
 Te        14.7419986621       14.7049013736       17.9684037527
 Cd        29.3923063798       32.6635939347       19.5961741761
 Cd        20.1796928613       13.7133944904       42.0724834393
 Cd        23.2562279923       16.5000672364       42.4679874138
 Cd        26.3046600743       19.5930802084       42.3886248404
 Cd        29.3938853234       22.7026427106       42.3824031593
 Te        31.1360854885       14.6513486349       21.2135312334
 Te        34.3902495779       17.9153704845       21.2191639233
 Te        37.6236946143       21.2570929345       21.2553319337
 Te        40.8673388555       24.5918632922       21.2533905214
 Cl        43.6701528671       27.8430751020       21.1684219045
 Cd        32.3547886609       25.7265282368       42.2350899006
 Cd        35.3566716869       28.8338060556       41.9817525291
 Te        37.4595457858       21.1738748931       34.3090950167
 Te        17.9824121983       17.9726910627       17.9852617854
 Te        21.2459122282       21.2279105505       17.9714621678
 Cd        35.3437962881        6.8616649294       20.2385655764
 Cl        17.0022677814       11.2239550612       41.2158292389
 Cl        27.8333628271       15.6172750408       44.1034806705
 Cl        31.7531713677       17.2873830211       43.0216896333
 Cl        33.2726502560       21.2108132878       44.1229205871
 Cl        36.6853675040       23.4075958387       43.9972584399
 Te         8.1476665560       18.0269950730       27.7224097040
 Cl         6.0311414055       31.7141469445       31.7118433356
 Te        30.9786986381       27.7452600629       40.8792190590
 Te        21.3332758380        8.0999496129       31.0263619471
 Te        40.8774504687       27.7242307680       31.0098956660
 Cl        43.9462345840       30.5734381985       30.6716548879
 Te        17.9324779556       37.5789075099       24.5183866342
 Te        34.3512937167       37.9850079022       34.2834640098
 Te        24.4789336602       21.1775463505        8.1403015301
 Cl        31.7183612164        6.0094761582       31.7102777445
 Te        34.3644178760       34.4634292704       31.0589769636
 Te        11.4237685020       37.5755978113       31.3675154078
 Cd         9.8925366680       22.6202542679       16.3942928618
 Cd        12.9974484942       26.1373850186       16.2480050540
 Cd        16.3105682651       29.4616475821       16.2300145148
 Te        21.2026374395       40.8432387234       24.5162219919
 Cl         4.8829111795       21.1839149243       15.7025776518
 Cd        36.2698846748        6.1855422799       23.6100233419
 Cd        29.5685073673       39.0187632125       19.4351512582
 Te        37.6713125866       37.5935325008       31.0818562201
 Cl        17.2989082487       43.0434237879       31.6943500393
 Cl        43.7117393231       24.5458325058       24.5546234864
 Cd        19.6024830549        9.7231148343       32.7513901966
 Cd        19.4440110708       16.0908095942        6.6986608106
 Cd        22.7042701044       19.5845638257        6.6164375702
 Cd        26.1170756669       22.8760284092        6.6083922857
 Cd        29.4055100871       26.2924495989        6.6127717338
 Cd        32.8445747968       29.4906722479        6.6859574586
 Te        40.8847911283       24.1841917389       34.3226188801
 Cd        32.7584951429        9.7190266238       19.6014739633
 Cd        16.3287171002       22.8646262682       22.8656078276
 Te        24.5851292716       21.2503523741       40.8645496902
 Te        34.2988231681       24.5248963702       27.7840952891
 Te        24.5199404541       24.4795294045       17.9705897870
 Te        27.7642939227       27.7499472668       17.9679004445
 Te        31.0156826969       31.0019130858       17.9832506589
 Te        34.2791598307       34.2300271811       17.9705457910
 Te        37.5809949155       37.5214354944       17.5656752273
 Te         8.1132902176       24.8332917646       34.3612393281
 Cd        32.5811395431       35.9508831828       19.4996733624
 Cd        19.5909703883       26.1376755066       22.8546869419
 Cd        22.8598436528       12.9874610459       32.7497004352
 Cd        19.3558073079       13.1468906481       10.1171030299
 Cd        22.6392400292       16.4078006365        9.8910935371
 Cd        26.1254640046       19.5965733833        9.8186130180
 Cd        29.4063993119       22.8754050358        9.8027666962
 Cd        32.6539603201       26.3054164942        9.8848046068
 Cd        35.8425413604       29.6395742887       10.0505417377
 Te        11.5758714131       27.8005341748       34.3492635703
 Cd        36.1721635377       12.9856614593       19.6005980756
 Te         7.9267704431       17.9834830455       34.2093502071
 Te        11.3669829656       21.2665917647       34.4214673460
 Te        14.6918901753       24.4920524109       34.3558679380
 Te        24.5431359088       11.4096646204       31.0727246729
 Cd        22.8612009571       29.4071677420       22.8523275867
 Te        17.9767292806       27.7738700346       34.2949701137
 Te        21.2383755086       31.0507634049       34.2876812456
 Te        24.5260180549       34.3657593282       34.3244023898
 Cd        26.1323389915       32.6735601815       22.8600321319
 Te        34.1826847078       31.0603425326       41.0249741829
 Cd        26.1468022815       16.2610978307       32.7382422843
 Cd        19.3571685415       10.0506451621       13.1588424466
 Cd        23.0270416368       12.9749657911       12.9882004095
 Cd        26.1548988876       16.2656091859       13.0427034769
 Cd        29.4791558483       19.5877724706       13.0609276144
 Cd        32.7518938530       22.8440102608       12.9929034916
 Cd        36.0854174532       25.9776799199       12.9748885370
 Cd        38.8758259420       29.6554762436       13.1541658885
 Te        14.7781630015       31.0085792407       34.2700154316
 Te        11.3494556048       31.2314800459       31.2570202967
 Cd        29.3991393304       35.9306902533       22.8017169117
 Cd        32.6806382499       39.2001009633       22.7732636637
 Cd        34.8734051698       42.2045023907       21.8868319593
 Te        27.6874186174       37.7542845878       34.3039609278
 Cd        31.9436913874       17.0747197821        6.6856802659
 Cl         5.3348671318       24.4906063189       24.4985107565
 Cd        12.7540438090        6.2131939875       25.4748988346
 Cl         5.0128262174       23.3210791434       12.2548258123
 Te         7.6686553449       27.2897790242       11.4950787805
 Te        27.7844383803       31.1298619689       34.3240729720
 Cd        19.4426762786        6.6911096983       16.1590421613
 Cd        22.7002202094        9.8856058873       16.4086786191
 Cd        26.2109212563       12.9844676926       16.3194832822
 Cd        29.4940859379       16.2557391573       16.2651249376
 Cd        32.8127156354       19.5192231633       16.3165730219
 Cd        36.0203039480       22.8560545530       16.2644597415
 Cd        39.2107189064       26.2106535900       16.3269366333
 Cd        42.3108856671       29.6271811928       16.1670227026
 Cd        29.3939927496       19.5991319850       32.6651793647
 Te        11.3921958040       31.0811840106       11.4098438533
 Te        14.7085609788       34.2806226463       10.9930394225
 Cd        35.3587234472       20.1731001192        6.9361612598
 Cd        36.3254136959       23.5325331070        6.2065547066
 Cd        36.2483689087       25.4736993896       42.7857728620
 Cl        27.5984371182        5.2633049812       21.4269455135
 Te        31.0212441256       41.1679906385       33.9617406532
 Cd        29.4654423021       16.3194628900        9.7982600382
 Te        37.5770744537       27.7880791990       27.7793632943
 Te         7.6994618658       11.4913726231       27.3466929008
 Cd         6.2138475709       36.2444462948       23.5261936692
 Cd        22.7035771340        6.6120772760       19.6082810614
 Cd        26.1271320504        9.7999289100       19.6635624706
 Cd        29.4849742837       13.0291585970       19.5932273673
 Cd        32.8155400012       16.2548979783       19.5232289185
 Cd        36.0072985574       19.5968772299       19.5993246075
 Cd        39.2009600555       22.9564218664       19.6145383316
 Cd        42.3954410261       26.3041893024       19.5945129862
 Te        27.7894290693       14.6855588989       31.0468093186
 Cd        12.7465060483       42.7308929705       23.5270847671
 Te        27.8064248502       11.4172695981       21.2521099301
 Cd        19.5228348347       32.6828410633       16.1872811776
 Cd        35.8413063661       38.8719840052       19.2818416655
 Te        11.4410634859       21.4474188443       41.2787026586
 Te        14.6567351571       24.7101479057       40.9543611603
 Te        17.9179598998       27.9341741365       40.8162996964
 Te        21.0455371016       31.0675443681       40.8233267915
 Cd        22.8600098708       35.9481447899       16.2421610347
 Cd        26.3736762483       39.0574070382       16.3431049226
 Te        11.3481746911       14.6325948719       27.7540188167
 Te        19.3698561831        7.3177853262       13.4207660419
 Cd        26.0540681476        6.6030875893       22.9570184886
 Cd        29.4038360331        9.7978794198       22.9426556309
 Cd        32.7540789431       12.9795695265       22.8523048181
 Cd        36.0332252630       16.2521775753       22.8407546249
 Cd        39.1982573579       19.6096689617       22.9492998010
 Cd        42.3911958896       23.0331435459       23.0274457414
 Cd        31.9276804991        6.6060060000       17.1513352394
 Te        31.0621042205       37.5706131951       24.4239870426
 Cd        29.5668334288       42.2924055038       16.0958907967
 Cd         6.2082459901       23.5952772824       36.2668396345
 Cd        19.4337469650       32.9016248991       42.2985343014
 Te        24.1630813939       34.3578239595       40.8826052841
 Te        27.3286436129       37.5124418810       41.3531432007
 Te        27.7851555904       31.0101419018       14.6814404909
 Cd        32.6737164912       22.8715905313       32.6743800944
 Te        18.0073617613       17.9951212725       37.6240747738
 Te        11.4259898143       27.4978659485        7.6837963444
 Te        15.0376481099       30.9537731288        7.7791263119
 Te        17.9926991737       34.2903288002       34.2359117258
 Cd        36.1737754983       22.9446899554        9.8710755962
 Cd        29.4033125479        6.6201331887       26.3169973596
 Cd        32.6502902522        9.8863169343       26.3719458164
 Cd        36.0951926929       12.9649843876       25.9728239208
 Cd        39.2057726301       16.3187550551       26.1988532580
 Cd        42.3934806814       19.5916230507       26.2952760436
 Cl        24.3770359277        5.3002709042       18.1981148760
 Te        34.3650385463       40.9445149615       24.2704834103
 Te        18.0056006405       33.9349409471        7.7880771887
 Te        21.4898730404       37.5353576962        7.6840209211
 Te         8.1426372295       27.7631998614       24.5516840270
 Te        14.7078108902       27.7764386131       24.4736174193
 Te        11.3952899856       17.8860998027       37.5513047161
 Te        14.6794710703       21.3412322263       37.7491507580
 Te        17.9728668681       24.5481247238       37.5995023283
 Te        21.1900279444       27.8332355495       37.5576705904
 Te        24.4737257556       31.0767236807       37.5919421853
 Cl         5.3412065785       18.1783052011       24.3759976417
 Te         8.1515256312       21.2263843207       24.4420079090
 Te        31.0320724850        8.0970460389       21.3370166669
 Te        11.3529564421       14.8289637991       34.6215119202
 Cd        32.8401300158        6.6960773575       29.5633932141
 Cd        35.8469675022       10.0583759940       29.6540725067
 Cd        38.8823266312       13.1553962775       29.6511252550
 Cd        42.3126995810       16.1655757554       29.5704123991
 Cd        39.3771536026       13.1494882354       16.7495511591
 Cl        37.7797578609       41.2516937956       31.9879858520
 Te        27.7443912405       34.4293556788       37.6485146951
 Te        31.1126111611       37.5560967253       37.6052870710
 Te        27.8063185853       24.5138309858        8.1345894271
 Te        31.0616532454       27.8974344988        8.2051625170
 Cd        21.8908559817       35.1949768424       42.5475922813
 Te        17.9089182365       37.6001246988       11.4091697265
 Cd        35.9537223211       26.1427724017       32.6833216512
 Te         7.3232992928       19.2877434161       13.4262337936
 Te        11.2114053266       24.2519792417       11.1935088278
 Te        14.6568047512       27.6521651294       11.2171053970
 Te        17.9974825536       30.9812605303       11.3195822674
 Te        21.3324151944       34.3089276478       11.2276678972
 Cl        17.2815554416       31.7702168979       42.9994967807
 Cl        12.3162712841        5.0044658255       23.4074282923
 Cd        12.9010515085        9.8716238802       26.0483813262
 Cd        16.3264015282       12.9892272559       26.1510885899
 Cd        19.5883174394       16.3128207811       26.1966741328
 Te        27.7335570194        8.1015221021       18.0349871410
 Cl        21.1645588613       33.3553902916       44.1296786959
 Te        24.7222464708       37.7594688675       11.1755419738
 Te        29.6988350142       41.6135539254       13.3744670319
 Te         7.9616665152       14.8422123833       31.0572861946
 Te        21.6466066735       41.3053603624       11.4619635893
 Cd        39.2030521744       29.4149722062       32.6739766407
 Cd        25.4079024366       36.2630682513       42.7907225789
 Cl         5.3074984592       26.9636028218       14.7405880225
 Te        14.6961977142       11.5295369792       21.1708505715
 Te        17.9725271209       14.6669992630       21.2097036742
 Cl         4.8886875094       33.2568051738       27.7872370617
 Te        34.3537462365       27.7872894035       11.5362445560
 Cl         5.0041408555       12.3147939436       23.4069539647
 Te        17.9539866777       31.0443573426       24.4587355486
 Te        15.0541337085       17.9893859719       41.1390864966
 Cl        23.3381771541       36.7647368140       43.9780063465
 Cd        39.2823956573       12.7449742231       22.8762305477
 Cd        42.4700494256       16.5006828814       23.2003135809
 Te        24.5035773418       24.5026385813       31.0348330589
 Cd        42.3144557392       31.9358455697       31.9235350571
 Te         7.9057553231       30.9968603198       14.7862855223
 Te        11.5317643209       21.1608268888       14.6548216742
 Te        14.6481939543       24.4919890112       14.6355937087
 Te        17.9339377066       27.7562495426       14.6210243348
 Te        21.2296948859       31.0354994870       14.6173739818
 Te        24.5007492849       34.3187778939       14.6133815811
 Te        27.8502096178       37.4139240484       14.6398021085
 Cl         4.8845408537       15.7344612696       21.2130514253
 Te        31.0440231024       14.7442980031       34.2989322289
 Te        18.0414143095       21.3810819257       40.8970757312
 Te        21.2739038938       24.6061337058       40.8573667549
 Te        24.4516975480       27.8055725983       40.8436829206
 Te        37.5573208431       31.3939478543       11.4090638835
 Cd         6.2115662338       12.7515695517       25.4747747195
 Cd         9.8722747834       12.8939855703       26.0436320821
 Cd        13.0510095975       16.2658861838       26.1436780687
 Cd        16.3292500638       19.5328680193       26.1457768180
 Cd        19.5900958053       22.8520968062       26.1439240375
 Te        27.6953785409       31.0459878143       40.8796001824
 Te        31.0343962269       34.2123483671       41.0815160318
 Te        24.3206915680       11.2161500148       11.2543519842
 Te        34.4263183762       11.3040669001       21.2631211128
 Cl         4.8833379025       27.8289953479       33.3227492537
 Te        27.7714966353       14.6306128911       11.3443783045
 Te        17.9725137702       27.7593561820       27.7528622955
 Te         7.3218411742       13.4195101321       19.3699896655
 Te        11.3609890512       17.7330648345       17.7401052077
 Te        14.7088231621       21.2299125699       17.9555189858
 Te        17.9610601716       24.4858485193       17.9133469339
 Te        21.2324412116       27.7587284156       17.9112391991
 Te        24.5090006055       31.0345200964       17.9084960031
 Te        21.2384884990       31.0278658356       27.7499660185
 Cl        23.4175901095       12.2452756092        5.0421403483
 Cl        27.0783926319       14.7240601128        5.3721132589
 Cl        30.5810332706       18.3175467900        5.0514965434
 Cl        34.3003227934       21.9672126649        5.2960153245
 Cl        36.7839563924       25.6085140436        5.0201570490
 Te        11.4245126841       17.5410204729       11.4630082530
 Te        27.7786696636       34.2916917335       17.9377321766
 Te        31.2792855017       37.6587669526       17.7305210426
 Te        35.5768545108       41.6182055971       19.2998438745
 Te        14.6934724471       21.1768530099       11.4858759668
 Te        13.4904101117       35.5246907446       35.4535442102
 Te        21.2173335857       34.2959671098       24.4682017455