     691
 i =       37, E =    -19439.9178017521
 Cd        20.0127562193       26.0730853718       19.9380460335
 Cd        23.0807711123       29.1399812891       19.9274359000
 Cd        26.2331881159       32.1012004350       19.8155370310
 Cd        29.2125983865       35.2890928897       19.7988918858
 Cl        27.3056150182        6.3798014588       18.4609374638
 Cd        35.5198888092       22.6878522629       29.6677158684
 Cd         8.7311171189       13.3910831437       20.8784539286
 Cd        10.8299630282       17.1899920712       19.9753198243
 Cd        13.9404068453       20.0772037238       20.0778026768
 Cd        16.9444699238       23.0702931467       20.0101415251
 Cd        23.0635466790       26.0491874684       23.0575208243
 Cd        26.0486968347       29.1452384663       23.0392721696
 Cd        29.0934000140       32.2658970865       23.0974058317
 Cd        30.8888275869       35.2510398667       22.4603039713
 Cd        23.6362242574       28.7686768950        7.7224047875
 Cd        16.7989673349       13.8924440347       17.0094217638
 Cl        36.7610673012       18.7208290290       15.6410042479
 Cd        10.9768280238       13.8827021270       23.1311650799
 Cd        13.8988381378       16.9189945374       23.0867538944
 Cd        16.9131870860       20.0029858880       23.1394659995
 Cd        19.9847423124       23.0178867532       23.0813100448
 Cd        26.1067513922       26.0811648970       26.1656384441
 Cd        29.0572870874       29.2526949664       26.1824473879
 Cl        18.5660636742       36.6600342856       21.5900695807
 Cd        19.9405310509       16.9339481359       16.8752879332
 Cd        14.0264130976       19.9346856717       13.8487830039
 Cl        21.5110650375       18.2958038006       36.5825940595
 Cd        13.9535096394       13.6945159882       26.2556852216
 Cd        16.8955809379       16.9005459213       26.1975953038
 Cd        19.9676128048       19.9906855976       26.1780662300
 Cd        23.0517863774       23.0118852084       26.1780201419
 Cd        29.2350501039       26.1125193532       29.2413669260
 Cd        31.4845631977       29.4274836011       29.1982648684
 Cd        13.3595840089       34.2813864488       22.1366547220
 Cd        34.6481019234       25.9628837520       28.5784952523
 Cd        22.9525474413       13.9519278085       22.9477865540
 Cd        14.3337450289       11.0026758602       29.2372436707
 Cd        16.9378367571       13.8750055287       29.2764126224
 Cd        20.0497651032       16.9459514383       29.1658123255
 Cd        23.0745211562       19.9702293313       29.2244853183
 Cd        26.1385809370       23.0180468938       29.2380020353
 Cl        20.5527893538       12.7184786919        6.3397538105
 Cd        29.2609694286       14.0200198926       16.8495679632
 Cd        26.0563464507       16.9630993175       23.0265676582
 Cd        32.1760660771       19.8142552856       26.1772003979
 Cd        26.0533120823       19.9640747473       19.9846319838
 Cd        22.7598622355        7.9615595710       17.0172104290
 Cd        26.1403896687       10.9376988790       16.9343725312
 Cl        36.6798723579       15.8252086979       18.4316185823
 Cd        19.9525565844       13.7751341160       32.2866630859
 Cd        23.1257777921       16.7476677684       32.1466317181
 Cd        26.1005195442       19.8062957220       32.2378723468
 Cd        29.3570236676       22.9125183663       32.1576708079
 Cd        23.0958788977       23.0908550263        7.7971519150
 Cd        34.8732157898       28.8334930175       25.1151583462
 Cd        23.1767746220       13.7747922452       35.2877547698
 Cd        26.2877692544       16.8494087108       35.1969357796
 Cd        28.6352725577       19.1315282447       35.3680793801
 Cd        29.6771186252       22.5334273328       35.5721888078
 Cd        22.9987605783       10.9586170594       13.6980520952
 Cd        23.0267698935       20.0395439102       10.8141249164
 Cd        13.9350768869       10.7415132842       23.0958101001
 Cd        29.0960660412       23.2795205592        7.7188029930
 Cd        32.2305853748       28.9674762044       17.1546594115
 Cd        16.7890997521       19.9067215892       10.8985433584
 Cl        15.2063521167       18.8536909857       36.4384600433
 Cd        26.1214546453       13.8375336070       13.7887597963
 Cd        19.9781624148       23.0506821626       10.7843366132
 Cd        13.6236109653       14.1430200134       14.0833311045
 Cl        15.6634111331       24.6813005373        6.4623663856
 Cd        22.9874227911       16.9591206540       19.9321974809
 Cd        26.0927946716       16.9590377361       10.8602659172
 Cd        25.9783067238       16.8206117262       29.1971296921
 Cd        32.2224352741       23.0968394006       17.1807373519
 Cl        36.6120389508       20.6505630118       30.3935788721
 Cd        17.0852548464       10.7608927244       26.0918611072
 Cd        32.2821940087       13.9439337344       19.9137888567
 Cd        35.2788235104       16.9574940404       20.2224592109
 Cd        19.9728181213       19.9988188968       19.9891924212
 Cd        16.8931713758        7.8945562368       16.6006018185
 Cd        14.5746727725        8.0313828404       25.7965082435
 Cd        16.8257476186       17.0592367688       13.8474513317
 Cd        19.1804723335       14.4101672141        7.6678399781
 Cd        10.7917963130       14.0953252623       17.1356438869
 Cd        16.9370110260       16.9726660588       20.0233830172
 Cd        28.9736117689       23.1668686723       13.8586221080
 Cl        36.4730018450       24.2189848296       27.7014742830
 Cd        28.9723435958       29.1646733082       19.9299667658
 Cd        32.2430577133       17.0773224349       16.9152516445
 Cd        29.1435427622       19.9350855802       23.1062026574
 Cd        20.0386301390       13.8412974214       13.7919600102
 Cd        29.1838747950       20.0623752566       10.7582812693
 Cd        16.9611664870       22.9438419262        7.7788021910
 Cl        12.4271306915       11.2866490979       31.2473297263
 Cd        13.6003341856       29.5092967501       11.1095195952
 Cl        37.1763398942       13.5369148209       21.4743099352
 Cd        20.3079895093       35.5316417128       13.3788349591
 Cd        13.8656844394       17.0340970124       17.0199817395
 Cd        22.9288402448       29.2350322704       13.7742184240
 Cd        26.3730739163       31.9064821680       13.9230626722
 Cd        23.0175884073       23.0242118516       19.9785854068
 Cl         7.1292188211       28.3194223560       25.4887859879
 Cd        13.8714917416       26.2350641307       13.6408709593
 Cd        16.8586080599       29.2314697830       13.8219020725
 Cd        19.9876119728       32.1008745599       13.7009321590
 Cd        23.7951880253       35.3435014507       14.3308312566
 Cd         8.7002793402       20.9440219653       13.3733668803
 Cd        10.9885829551       23.1036356057       13.9154741955
 Cd        16.9110403341       26.1069331180       16.8875277829
 Cd        19.9827389030       29.1669742592       16.8982850788
 Cd        23.1812820343       32.1829787421       16.8636650366
 Cd        26.1240234276       35.1386691860       16.6407111033
 Cd        35.1463330105       23.1062278798       19.9387061857
 Cl         6.4210532802       22.3654059224       30.4118221776
 Cd        10.8240025842       19.9810048867       17.1829969543
 Cd        13.8915360805       23.0602326542       16.9276407506
 Cd        20.0676061264       29.0628138888       22.9798464438
 Cd        23.0786022395       32.1769137178       22.9391991535
 Cd        26.0838044574       35.2689618720       22.7957149502
 Cd        35.1037134365       22.7346204765       25.9821694609
 Cd         7.7379434713       17.2630509163       22.9410260418
 Cd        10.8546018499       20.0684021931       23.0957486405
 Cd        13.8628230029       23.0589699878       23.1632866516
 Cd        16.9663273638       26.0523086673       23.0616140150
 Cd        22.9995337421       29.0984873993       26.0840209640
 Cd        25.9681898553       32.2275950526       26.0989868195
 Cd        28.4954059348       34.9383174668       25.8197115955
 Cd        29.1605858204       23.0219150380       26.1507323259
 Cd        11.0734170787       10.8956973942       19.9149354389
 Cd         7.9972331293       14.2471873103       24.9619556231
 Cd        10.8402622097       16.8143858651       26.1033332029
 Cd        13.8085951466       19.8948742964       26.2314443678
 Cd        16.8923283243       23.0415861906       26.1863383149
 Cd        19.9991242263       26.0343748286       26.1109684664
 Cd        26.1001739499       29.1237734154       29.2513512486
 Cd        28.8814100019       31.8462778563       29.1441113171
 Cd        26.0870682081       16.9484731501       16.8729013377
 Cd        19.9772939908       10.9324693003       29.1121479871
 Cd        11.9330923309       13.2185646731       29.5717708529
 Cd        13.7751747705       16.6909955907       29.4385589554
 Cd        16.8751574537       19.9823705442       29.2174652991
 Cd        19.9546122996       23.0180489755       29.2343101641
 Cd        23.0157797113       26.0442475478       29.2091586689
 Cd        29.1383188590       29.2809118306       31.6749836114
 Cl        12.6948231118       22.5070773570       36.7026480440
 Cd        26.0646827548       13.9486202946       19.9802347227
 Cd        32.2519052408       25.9494628084       14.1128201967
 Cd        14.1718390551       13.3262062617       32.2750291032
 Cd        17.0482295690       17.0550987623       32.1056494619
 Cd        20.0431467736       19.9825633392       32.2468804498
 Cd        23.0263664620       23.0112361676       32.2463653792
 Cd        26.1154653795       26.0681436237       32.1906031784
 Cd        32.1281335197       26.1300592212       26.0772783639
 Cd        23.1281275392        7.8833064300       23.0321945598
 Cd        25.8645460992       10.8305109670       23.0337762839
 Cd        16.9263408427       13.6646672115       34.8844738952
 Cd        19.9701935807       16.7549502767       35.2679857021
 Cd        23.0007631166       19.8197599021       35.2657607869
 Cd        25.9289333686       22.7631606578       35.1360916254
 Cd        28.8932112087       25.8080734563       34.6462486021
 Cd         7.7549467481       30.8868101322       20.6148275484
 Cl        36.7058933142       27.2751960246       24.4805967234
 Cd         7.7244960415       29.2062471068       23.2678595724
 Cd        10.8843075705       31.9401737815       23.1369126729
 Cd        29.1423593759       16.9702833598       13.7728753850
 Cd        32.0603516616       20.0203672371       13.9155283188
 Cd        26.0521241527       20.0522174919       13.8423649511
 Cd        25.9195162595       10.7363955477       28.8964632967
 Cd        26.0331272453       20.1594492105        7.7910308183
 Cd        16.9561818824       13.8563236078       23.0560831874
 Cd        34.3226914872       22.1871793715       13.3595280539
 Cd        25.9883452833       26.4333684402        7.8249050232
 Cd        31.8681896088       16.5963166217       29.1161768769
 Cd        35.2733095501       25.8074685103       22.9929451076
 Cd        31.9465926253       32.1364144461       19.9255613461
 Cl        31.2531909021       12.1171852328       11.9659270673
 Cd        22.8209395407       17.1172326022        7.9078189012
 Cd        25.8410400287        7.7796061958       19.9886186259
 Cd        29.1321753710       11.0413595043       19.8950577434
 Cd        35.3049910146       13.8405480738       23.2260324057
 Cd        29.2173317025       20.0331376782       29.2460439728
 Cd        28.9204198252       13.6181292640       28.9186766845
 Cd        29.1752427399       14.0477219790       23.0851456394
 Cd        35.1318366659       16.8888629556       26.4078261018
 Cd        26.1880753195       23.2256677020       10.8922231345
 Cd        29.0721077647       22.9621116769       20.0652788584
 Cd        31.9419991152       23.2974466214       10.9133869460
 Cl        18.5757643021       21.4802962745       36.6149421966
 Cd        18.0520905604        8.0153711091       28.8188788166
 Cd        32.2006680968       25.8587967421       19.9698701690
 Cd        35.3297337234       20.0827556007       17.2134943835
 Cd        11.2228840946       29.0786456416       13.9062590250
 Cd        13.6172161619       31.5731579979       14.0042574701
 Cd        17.0297387957       34.6379654824       14.4526901131
 Cd        32.1887416758       19.9507999936       20.0827839705
 Cd        23.0053623465       19.9907316658       16.8747032244
 Cd         8.1379067741       25.1490908845       14.1733782852
 Cd        13.7730892863       29.0372939602       16.8931359251
 Cd        16.8889812435       32.1232842137       16.9810781489
 Cd        20.2641115613       35.1058221364       17.0573072907
 Cd        28.9698081354       10.7805677515       25.8459378477
 Cd         7.7322456941       23.0065045799       17.2125572975
 Cd        10.8204173932       26.0103543934       16.9081146621
 Cd        16.9619380708       29.0864215685       20.0177429180
 Cd        20.0687053352       32.1654566794       19.9630751214
 Cd        23.1113732810       35.2131912655       19.9220408316
 Cd         7.8946202407       19.9546076822       19.9120888325
 Cd        10.8487164613       23.0981231387       20.0921369254
 Cd        13.8635922789       26.0407292175       20.0433617280
 Cd        19.9539106130       32.2015125426       25.8658565600
 Cd        22.9612206519       35.3037479140       25.8070941879
 Cd        32.1623852357       22.9414787129       23.0824808623
 Cd         7.8996929939       20.2996168309       25.9551224477
 Cd        10.8372736225       23.1804973666       26.1905384542
 Cd        13.8726332731       26.2042938084       26.0543344496
 Cd        17.0160193348       29.1408840222       26.0443921276
 Cd        23.0588030535       32.0427552694       29.1218253300
 Cd        25.0781682817       34.8964201969       28.8744231647
 Cd        23.0221589890       16.9241340610       13.8075029761
 Cd        19.9868258945       23.0603394269       16.8815654740
 Cd        23.0725159207       26.1771536306       10.7788161042
 Cd         8.2054783727       17.0613728777       28.4345558073
 Cd        10.8918341578       19.9195116951       29.3104688439
 Cd        13.7747529699       22.9387254490       29.2429547872
 Cd        17.0282404523       26.1587159764       29.2202242946
 Cd        19.9052471487       28.9697606987       29.1969241690
 Cl        24.2345508827       15.2644499073        6.6071216391
 Cd        22.5830276162       13.3716871695        7.4840446857
 Cd        25.8479036065       14.1674431572        8.4262628077
 Cl        21.6128762318        6.3248816508       24.3209133650
 Cd        13.6441417569       20.0760861535       32.1316505211
 Cd        16.9040929886       23.1498937907       32.2290742922
 Cd        19.8863115942       26.2028157400       32.1535406679
 Cd        23.0423984192       29.1783409549       32.2816008387
 Cd        28.8367988388       17.4493525291        8.1188048055
 Cd        31.0657201111       20.8272337145        7.8075340751
 Cd        23.1188298865       13.9995825022       29.1646857360
 Cd        14.0898057975       17.1958896567       34.5449521558
 Cd        17.0640481823       20.1808635946       35.1289970770
 Cd        19.9496445995       23.0821070031       35.2571293837
 Cd        22.9202988412       26.0099315014       35.2650062001
 Cd        25.6273303129       28.8215494390       34.9493894825
 Cd        13.8154127266        7.7326944000       19.7602920592
 Cd        19.9076954757       19.9911867996        7.7896484848
 Cl        14.6982302182        7.1389466983       17.5344867782
 Cd        19.9787974332       26.1569580132       13.8332313027
 Cd        23.0560996024       26.1197401424       16.8799530266
 Cd        19.2073047341        7.7323220503       14.2613500964
 Cd        26.0575289253       26.0540723696       20.0013714273
 Cd        16.7768421050       10.9199600789       19.8080104603
 Cl        11.6908716369       31.2076265842       12.1779617220
 Cd        29.0900310145       26.0581998017       23.0426310527
 Cd        10.7459618211       17.1686561911       14.1027138351
 Cd        19.9096594243        7.8133685494       19.8855890443
 Cd        29.3024962691       13.9096128377       11.3931332836
 Cl        24.4911132469        6.3792569795       21.4881035679
 Cd        26.0182720448       13.8600383495       26.0031676889
 Cd        26.0397104917       23.0413752390       16.9408149791
 Cl        21.4404505191       36.6753243493       24.4328325292
 Cd        29.1436830739       16.8052656212       26.0294701199
 Cd        20.1113720366        7.6820530592       25.7447384543
 Cd        19.8132251349       10.8686524853       16.8516428208
 Cd        19.9331685701       16.9556939205       23.0678755594
 Cl        21.4773654151       24.3484417546        6.3804076303
 Cd        20.1654660855       25.9723155072        7.7393335202
 Cd        35.3057482706       19.1938015796       28.7481290866
 Cd        26.1922989033       29.1620499210       16.9910019442
 Cd        23.2236220751       11.0188871123       32.0934403054
 Cd        22.7032967629        7.5598261575       13.3383809937
 Cl        18.4145109533        6.3633131808       21.2686219795
 Cd        29.3982667557       11.5374694376       13.9036055179
 Cd        31.8480328409       14.1506244375       13.8746854466
 Cd        34.9104770871       17.9894175509       14.1511147070
 Cd        35.2126500518       19.9015364635       23.1083292153
 Cl        19.1404677027       27.6475362111        6.1345142219
 Cd        29.0075004511       16.5810132400       31.9242024989
 Cl         6.4298423526       18.8845112828       27.6390089174
 Cd        14.1744285335       34.8855087413       17.9611037439
 Cd        29.1410824206       26.0322427731       17.0106505140
 Cd        29.1157447897       20.0525529233       16.9528921747
 Cd        22.9285694370       13.7126596022       10.8904118012
 Cd        32.0081535203       29.1163409037       23.1099439805
 Cd        23.0871869963       10.7861914132       25.8195445077
 Cd         8.0906906224       28.5073097550       17.2182537221
 Cd        13.9044610612       32.0082572524       19.9411373577
 Cd        17.2046144702       35.2752297515       20.0734152275
 Cd        23.0213574768       19.9921812014       23.0730800646
 Cd        23.0211527807       13.8952843066       16.8808925247
 Cd        29.6909648416        8.7529169410       22.0563110487
 Cd        32.1611003044       11.0837435157       23.0815490110
 Cd        16.6074222556       14.0187836408       11.1100262778
 Cd         7.7718375176       26.0965634323       20.2300047155
 Cd        10.7470314844       29.1017921074       19.9535650170
 Cd        17.1757640518       32.1937362178       23.0873039523
 Cd        19.9160999340       35.1361348705       23.1064441127
 Cl        24.4006209363       21.4834031829       36.5906369865
 Cd        13.8446693116       23.0874078815       10.7508527995
 Cd         7.8204453474       23.1325759993       23.0972436188
 Cd        10.9149128871       26.2447972213       23.2436895990
 Cd        13.8572002241       28.9785113532       23.1187317851
 Cd        20.8950384107       34.3231622338       29.6697052580
 Cd        25.9853630925        8.4413044028       14.4014002363
 Cl        15.8176615786        6.3153437986       24.5256616295
 Cd        34.9573763490       14.5726256432       17.1904620388
 Cd        17.0279843995       26.1303103694       10.8234389761
 Cd         7.7221191560       23.8011493470       28.7487225230
 Cd        11.1406995803       26.4008375090       29.1261789004
 Cd        14.1051366002       29.3790727340       28.9651646251
 Cd        17.1195173089       32.2573211991       28.9289850830
 Cl         6.4070546023       21.5370179226       24.4389450415
 Cd        32.1093518565       22.9942534838       29.3258019178
 Cd        22.1908938575        8.6679074492       29.6138599530
 Cd         7.4645254493       20.3177983898       29.6394516263
 Cl        28.3307069837       35.8817817248       17.5798370416
 Cd        14.0065912110       26.3943642163       31.9322323521
 Cl        20.6768291922        6.4483040446       12.6094476360
 Cd        19.8082247418       31.9661784330       32.1139214432
 Cd        16.9554318877        7.7368784406       22.7633613133
 Cd        11.9107957711       22.3492594175        7.8045102377
 Cd        13.3106596682       20.4516462911       35.5777790786
 Cd        14.4051258385       23.8302904954       35.3605218408
 Cd        16.7300962788       26.1200820368       35.1962308975
 Cd        19.8850220278       29.1637476950       35.3367400372
 Cd        14.2033421739       25.7531239490        8.1541652340
 Cd        19.9607966103       19.9928110084       13.8094355712
 Cd         7.8838685300       26.1187014943       26.4207827364
 Cd        14.0249748501       13.8578151082       19.9438726794
 Cd        28.8837029346        8.2024623025       17.8563826346
 Cd        35.2777114769       12.1776430999       20.5557873856
 Cd        19.9990896913       29.3732945161       10.8369657633
 Cl        25.3428052145       14.7101636571       36.0367059153
 Cd        14.0758799028       32.2353983223       25.8940592594
 Cd        19.9435259740       10.8337302434       22.9162735626
 Cd        13.8340188037       19.8733295262        7.7236590728
 Cd        26.0726719834       22.9978963437       23.1014702470
 Cd        34.2902621186       29.6681178069       20.9365825423
 Cd        23.0161764077       23.0886791803       13.8152562040
 Cd        29.3539519762       28.9556611694       14.0790673578
 Cd        16.6084294085       11.1691378057       13.9156023525
 Cd        19.8330992536       16.9406748773       10.8145554850
 Cd        11.0459685989       19.8540830204       10.9145004419
 Cd        16.9327073028       23.0533008233       13.8416597243
 Cd        16.9548055238       20.0307997529       16.9491962205
 Cd        19.9179581870       13.8933593831       19.9228129529
 Cd        20.0337518254       13.8782933868       26.0676285191
 Cd        23.0346936390       16.9640061001       26.0775946180
 Cd        26.1173137722       19.9578035995       26.1671403950
 Cd        29.1532148040       16.9935769111       19.9917424053
 Cd        16.8853897246       16.7376595243        7.8465589182
 Cd        16.3262378272       29.8861261015        8.9018119510
 Cd        26.1422922032       26.0353036975       13.8259125209
 Cd        22.9435620861       10.8843484547       19.9251930268
 Cd        32.1043743775       16.7884939411       23.2114991398
 Cd        26.3374565301       29.0813797913       11.0877885080
 Cl        24.2613064213        6.6115991931       15.2899462465
 Cd        20.0610943440       29.6046032329        7.3365403834
 Cd        12.1643292796        7.7526020954       22.4341102614
 Cd        22.3172896647       31.1436422090       35.2043558525
 Cd        20.7094403868       11.8432038918       35.2003560399
 Cl        36.6606940552       24.4521809130       21.4805498499
 Se        30.8397150616       15.7916205474       12.1895669135
 Cl        16.1904823068       24.4514509551       37.0336070884
 Cl        30.9301788070       31.2406090131       31.1189747852
 Se        34.1747549144       30.6174249194       23.4458987655
 Se        30.5683906898       21.6022793037       12.3889557524
 Se        12.4008239559       34.1763481375       19.6367111758
 Se        18.4673898716       24.5959500123       15.3548631150
 Se        27.5338381564       12.3993595190       24.4042506165
 Se        21.5028178831       21.5247737250       15.3280555581
 Se         9.3047130237       18.6051092338       12.4088229005
 Se        15.3866923018       18.4531975723       24.6583659736
 Se        30.7531616613       15.5309082251       18.4454015641
 Se        24.4744247967       12.4189218865       21.4189613440
 Se        30.6194950923       24.4666806020       21.5921319584
 Se        18.4549821553       21.5343244720       24.6531959495
 Se        19.7096292393        8.7522899612       30.5969170826
 Se        18.4485859814        9.2158906642       24.3904235732
 Se        15.3707379824       21.4451025785        9.2397174870
 Se        18.4378328519       18.5158897896       21.5543483385
 Se        21.4303857076       12.3528599282       18.3401824938
 Se        24.6207105938       30.5873976064       15.3622692164
 Se        12.3673883645       33.6547233768       24.4476878549
 Se        30.6661338487       12.5273033814       21.4621063832
 Se        21.5533494557       24.5229701140       24.6038710717
 Se        18.5979361625       30.6265722235       27.5463469256
 Se        14.2142367263       26.2493971318       34.4715005010
 Se        24.6064932194       27.5980286244       18.4308296507
 Se        12.5529732751        9.0170305970       24.5928019702
 Se        30.5810435906       18.3695745577       27.6694885950
 Se        30.6996895305       21.4321374125       24.6807824588
 Se        15.5110771015       27.6540779948       27.5984336238
 Se         9.3798794113       12.3797821723       18.5827813055
 Cl         6.2918231109       24.3712993920       15.6557685265
 Se        27.6239631525       21.6487758385        9.2481538045
 Se        24.4990282893        9.3626767912       18.3473452687
 Se        18.4823753595       21.5599251072       18.4646379268
 Se        18.5646978890       30.6123870696       21.4669794993
 Se        18.4358635940       15.4148608524       24.6055190717
 Se        12.4645094644       21.5126525623       12.3800739557
 Se        30.6969646637       18.4047879234       21.6131890029
 Se        15.3563265034       15.5221901071       15.4651856487
 Se        27.6189335331       15.4357361428       15.3120583195
 Se        18.3433273338        9.2887071784       18.3460324072
 Se        27.8115288686       30.7588653951       18.2553681762
 Se        27.6387387733       27.6050660749       27.7161272000
 Se        12.3922037333       18.6070477544       15.5080143251
 Se        30.7925698736       18.6800294439        9.1219426581
 Se        14.9398624273       12.5503448113       12.4687076017
 Se        18.4797262095       27.6123213674       18.4262219877
 Se        21.4666528383       12.3739463768       24.4316165446
 Se        24.5403393657       15.4337277622       18.4031900275
 Se        21.5847634954       30.6995430970       18.3752509515
 Se        24.5937621486       24.5514339799       33.7809846092
 Se        21.4937762494        9.2671339222       21.4244817679
 Se        27.6170388070       24.5331327596       24.6289108388
 Se        15.4324475721       27.5654841236       21.5346096137
 Se        15.4978806285       12.2566940073       24.5963075200
 Se        21.5617771705       12.4282411514       30.6224857969
 Se        24.6735505568       33.7400709495       18.3806294303
 Se        27.6099314032       18.5491789751       12.2785869687
 Se        27.6656031419       27.7851048792       33.6809040121
 Se        12.2994449527       18.2992440972       27.7570793231
 Se         8.9437252513       18.4413150403       30.4371459718
 Se        24.5701434431       24.5056906948       21.5368986219
 Cl         6.3843342209       24.6290439034       21.6960523876
 Se        23.1648811515       11.2299126833       34.6121893779
 Se        27.2693923666       30.8188251213       30.8443618836
 Se        15.3919510468       27.6220796665       15.3486843199
 Se         9.3083214091       18.5390912459       24.6514216371
 Se        33.8500318658       15.7631130056       15.1564374919
 Se        24.7373450698       15.2132760477       30.7967987914
 Se        24.6232755914       24.6520510993        9.2643971105
 Se        15.5470898598       15.4736703099       33.5235790614
 Se        27.5760854310       21.4308056497       21.5891754225
 Se        24.4558220431       12.3651637250       27.4937841510
 Se        12.2247456503       18.7899916665       34.0201259383
 Se        27.7535897776       21.3052025721       33.8955844488
 Se        18.5006803612       27.7326313624       12.3125650572
 Se        24.5607872863       18.4454555825       27.6595888442
 Se        18.4303479513       21.5036352309       12.2798274132
 Se         9.0474819577       30.5181085786       18.4710456453
 Se        15.7171878551       33.5458488849       21.3603775432
 Se        21.5036226539       15.4132308728       15.3468846897
 Se        30.6418296345       24.4632470435       15.5131809796
 Se         9.2730208693       24.6307454997       18.5983633823
 Se        21.5134866279       21.5192590220        9.2427012539
 Se        19.8824785202       31.7189557553       34.6382093886
 Se        15.2710642352       21.6878166302       33.8777088566
 Se        30.6786263102        9.3658494925       24.3719037643
 Se        18.4659104374       30.7386635158       15.3922802941
 Se        24.5757368282       18.4792368230        9.2751499278
 Se         9.2788757631       21.5488425919       21.5633843933
 Cl        13.5068809245        5.8504026543       21.4936762964
 Se        12.5021046608       12.3677497704       21.5607284518
 Se        12.1201414205       21.6540616826       30.7853339288
 Se         8.8324603438       23.4420828339       12.4106465000
 Se        33.6998313033       24.4772790189       24.6552804230
 Se        30.5843761143       30.9853394666       27.4116884886
 Se        12.4806191997       15.3189697031       24.6835070415
 Se        30.7540927725       24.2399672915       34.0432230948