    1116
 i =        1, E =    -33963.7756911663
 Cl        11.3075553180       17.1645637760       22.8291652102
 Cl        10.4578068851       17.7089445796       28.3470541575
 Cl        11.3460380980       20.0369136459       20.0434927089
 Cl        11.2274548152       20.1632259554       25.8117330660
 Cl        10.3706930584       20.6899712439       31.3239365164
 Cl        11.3160549766       22.8323189592       17.1791658555
 Cl        11.2546980101       22.9829010433       22.9901588758
 Cl        11.1653265017       23.1833626540       28.8315499309
 Cl        10.3644866877       23.6581835530       34.2868872631
 Cl        10.6144626537       25.3368497741       14.6387398309
 Cl        11.2336095218       25.7986363501       20.1654954116
 Cl        11.1892983899       26.0024817825       26.0043088124
 Cl        11.1643005383       26.1607111099       31.8089121852
 Cl        10.3921682155       26.6570323847       37.2884099440
 Cl        10.4564062489       28.3424800044       17.7263593106
 Cl        11.1610316658       28.8206756920       23.1823527989
 Cl        11.1842745264       28.9832508437       28.9840298397
 Cl        11.1639832363       29.1780152278       34.8259173713
 Cl        10.6126633091       29.6633813372       40.3784030652
 Cl        10.3727847919       31.3218116759       20.6952859318
 Cl        11.1461689593       31.8093680839       26.1929199730
 Cl        11.2066123681       32.0073969569       31.9884444452
 Cl        11.3055894044       32.1728552322       37.8415165893
 Cl        10.3764541516       34.2850213083       23.7063737111
 Cl        11.1424039567       34.8162501316       29.1514745368
 Cl        11.3383848870       34.9471936196       34.9665235239
 Cl        10.4095494571       37.2858219743       26.6302374423
 Cl        11.2993875291       37.8253167334       32.1769014714
 Cl        10.6117241261       40.3454264900       29.6433623092
 In        12.5482348383       15.3075972040       24.2756015418
 In        12.7922981073       18.3157940384       21.2599209794
 In        12.4511147471       18.4080817051       27.4581240914
 In        12.7969127116       21.2584443706       18.3263935156
 In        12.7006696715       21.4323846535       24.3729013077
 In        12.3897366958       21.4312816714       30.5448944352
 In        12.5508317913       24.2742176152       15.3140959005
 In        12.7064441454       24.3625172756       21.4341000217
 In        12.6317953830       24.5130598342       27.4612196119
 In        12.3868837052       24.4530351696       33.5689866735
 In        12.4532729473       27.4528850608       18.4119481612
 In        12.6284410682       27.4520284914       24.5094413620
 In        12.6301363772       27.5388116013       30.4855809026
 In        12.3877493192       27.5446588950       36.5965204411
 In        12.3904747371       30.5432517692       21.4388668331
 In        12.6285309553       30.4817472045       27.5464414552
 In        12.6306191000       30.6314354354       33.5680104696
 In        12.5487804384       30.7239206892       39.6924696889
 In        12.3881566135       33.5615848916       24.5226390546
 In        12.6337831447       33.5649308059       30.5756773944
 In        12.7919760872       33.7385185050       36.6834778175
 In        12.3873705783       36.5892661794       27.5480546790
 In        12.7881643186       36.6681800479       33.7393437322
 In        12.5406662040       39.6829099482       30.7280302780
 Cl        14.6451969507       10.6037382104       25.3296429178
 As        13.7719171702       13.7716116130       22.6399976917
 Cl        10.6126811011       14.6271056063       25.3384243484
 As        13.8520534828       16.6970975332       19.6623825896
 As        13.8887433498       16.9130069092       25.9226196578
 Cl        13.8045037888       17.1780870858       31.6884757698
 As        13.8544197019       19.6576567035       16.7057801118
 As        14.0711081787       19.9100350315       22.8987162057
 As        13.8746976552       19.9682482789       28.9925682348
 Cl        13.7509432513       20.2737179709       34.7182469261
 As        13.7687669212       22.6367612246       13.7735203954
 As        14.0945815610       22.8719732722       19.9378779900
 As        14.0213696972       22.9831296469       25.9595862363
 As        13.8641095847       22.9894375378       32.0104485095
 Cl        13.7983149239       23.3029516066       37.8122486104
 Cl        14.6386955463       25.3364985210       10.6169209740
 As        13.9008660651       25.9313453781       16.9120303668
 As        14.0252688855       25.9498423631       22.9877879373
 As        14.0340966165       26.0252919341       28.9745001287
 As        13.8397551816       26.0080042647       35.0519597478
 Cl        13.9847512389       26.3667952004       41.0167805112
 Cl        13.9799942858       28.6686386545       13.9869148639
 As        13.8748671853       28.9880340329       19.9772174798
 As        14.0136177803       28.9906150236       26.0046154379
 As        13.9878260534       29.0601565858       32.0185553649
 As        13.8687064841       29.0693524001       38.0770509742
 Cl        14.6343540861       29.6613501456       44.3917774957
 Cl        13.8053056993       31.6795848565       17.1795923952
 As        13.8518869599       32.0186674922       23.0078062219
 As        14.0126020634       32.0093697678       29.0449465707
 As        14.0431387793       32.0886302848       35.0754861826
 As        13.7718627292       32.3600424731       41.2307171671
 Cl        13.7668439010       34.7148399395       20.2591014096
 As        13.8661227598       35.0431027508       26.0398705100
 As        14.0291857970       35.0540014983       32.0810807407
 As        13.8514697531       35.3332337752       38.3071386287
 Cl        13.7995809089       37.8035599364       23.3111073385
 As        13.8584754221       38.0503024292       29.0893757172
 As        13.8208701828       38.2788553844       35.3564094862
 Cl        14.6347430393       44.3013768925       29.6299779041
 As        13.7323000928       41.2248438924       32.3712824684
 In        15.3105804187       12.5486481082       24.2743313038
 In        15.3822499216       15.3891766338       21.3508369689
 In        15.4015286812       15.3993063820       27.4664578698
 In        15.2363263267       18.5612951617       18.5687759082
 In        15.4811778149       18.3966465659       24.5238289110
 In        15.3962690731       18.4103690157       30.5532345618
 In        15.3785098355       21.3455580965       15.3873884685
 In        15.6318194790       21.4370320401       21.4955502500
 In        15.4668700054       21.4220663572       27.5493223198
 In        15.3942562449       21.4277489764       33.5731318923
 In        15.3111727936       24.2747683781       12.5547918246
 In        15.4773620513       24.5217787373       18.4094871340
 In        15.5647193095       24.5091532242       24.5176964868
 In        15.4647191026       24.4388040413       30.5651516287
 In        15.3931994044       24.4479068953       36.5920967101
 In        15.4008179191       27.5159892483       15.3999023769
 In        15.4687578041       27.5437901802       21.4253853256
 In        15.5675567533       27.5241711598       27.4755108341
 In        15.4046341453       27.4542259490       33.5801346884
 In        15.3953834753       27.5342667938       39.5997478844
 In        15.3941525323       30.5511714174       18.4178949401
 In        15.4614425768       30.5665303513       24.4330743368
 In        15.5598365270       30.4819065635       30.4926443172
 In        15.4731300526       30.4720530125       36.5978381814
 In        15.3084764562       30.7255704566       42.4541224847
 In        15.3905745623       33.5683806504       21.4341911836
 In        15.4623950764       33.5734038304       27.4583996181
 In        15.5583496731       33.4952431162       33.4970273647
 In        15.3848822383       33.6486571729       39.6157577860
 In        15.3932991875       36.5835821755       24.4503319159
 In        15.4722650961       36.5848501218       30.4829657302
 In        15.2313205660       36.4319051142       36.4446342248
 In        15.3938190446       39.5273367016       27.5399499118
 In        15.3191108495       39.6032410806       33.6597767916
 In        15.3053449870       42.3812383891       30.7271176036
 Cl        17.1802737418       11.3508386557       22.8201871205
 Cl        17.7255395696       10.4540736225       28.3493227440
 As        16.6737715321       13.8553769482       19.6533004048
 As        16.9197872030       13.8888506800       25.9209596421
 Cl        17.1940743664       13.7955578025       31.6927457158
 Cl        17.1348039542       17.1504339250       17.1500003644
 As        16.9269895554       16.9185260194       22.9464399423
 As        16.8996742646       16.8958459840       29.0202865583
 Cl        17.0399790793       17.0306960998       34.8142792514
 As        16.6800558315       19.6604524906       13.8467639231
 As        17.0226128874       19.9266586274       19.9572267622
 As        16.9607574326       19.9507088088       26.0169182003
 As        16.8975597399       19.9328187044       32.0483414046
 Cl        17.0356310560       20.1852571826       37.9663900060
 Cl        17.1672288409       22.8227851987       11.3155515773
 As        16.9080740514       22.9542242010       16.9113641752
 As        17.0310132802       22.9892108984       23.0257547521
 As        16.9507743619       22.9673571957       29.0248935206
 As        16.8945613964       22.9542919449       35.0685123637
 Cl        17.1937578479       23.3038303337       41.2045057001
 As        16.9155127883       25.9428715325       13.8850660775
 As        16.9694612219       26.0002058161       19.9730755275
 As        17.0413366926       26.0058427883       26.0060533394
 As        16.9307984494       25.9881755673       32.0466852169
 As        16.8940890031       25.9789917834       38.1072520140
 Cl        17.7167751618       26.6502541556       44.5447519151
 Cl        17.7259623300       28.3627469792       10.4086004734
 As        16.9064071792       29.0274359601       16.9105855851
 As        16.9509415885       29.0193649517       22.9729068903
 As        17.0362006357       28.9936272258       28.9969764232
 As        16.9427987501       28.9733749078       35.0402862947
 As        16.9123720987       29.0773272135       41.1126341715
 Cl        20.7213845739       31.3236254376       10.3683451340
 As        16.8963151920       32.0434073724       19.9403456255
 As        16.9460441424       32.0300790118       25.9819833438
 As        17.0230192010       31.9704900261       32.0058638992
 As        16.9127364310       32.0473987832       38.0760867102
 Cl        17.1693128969       32.1706519078       43.6947318487
 Cl        17.0490183286       34.8063243800       17.0252292036
 As        16.8949803547       35.0604423174       22.9585121569
 As        16.9589225841       35.0100149171       29.0120884925
 As        16.9552551604       35.0199691992       35.0286055100
 As        16.6965131166       35.3344924226       41.1452352976
 Cl        17.0445941306       37.9594782753       20.1820483519
 As        16.9082969715       38.0528755597       26.0023552459
 As        16.8900035888       38.0606178345       32.0718000322
 Cl        17.1381750407       37.7950401453       37.8434799899
 Cl        17.1779155883       41.1766387037       23.3631741309
 As        16.9035348972       41.0407447930       29.0896972663
 As        16.6513914289       41.0857484711       35.3697565810
 Cl        17.6647287652       44.5287712586       26.6532482470
 Cl        17.1262180669       43.6340461548       32.1864937508
 In        18.3221930413       12.8601511521       21.2608122937
 In        18.4098305681       12.4514446249       27.4580343415
 In        18.4989881514       15.2370562457       18.4984831648
 In        18.4066880967       15.4814627457       24.5237157107
 In        18.4125906573       15.3951444219       30.5540922535
 In        18.4935474367       18.4963560354       15.2383742823
 In        18.4855764703       18.4157767958       21.5076207852
 In        18.4162125091       18.4097646377       27.5567444074
 In        18.4124222504       18.4109868029       33.5763183601
 In        18.3191040719       21.2553358649       12.8002103757
 In        18.4178754217       21.5048985721       18.4264398963
 In        18.4974593733       21.4324384841       24.5263960074
 In        18.4159713556       21.4194192697       30.5660226016
 In        18.4112345246       21.4250774664       36.5907597645
 In        18.3988933648       24.5279628323       15.4785915207
 In        18.4924248053       24.5195341079       21.4996914753
 In        18.4920353433       24.4495030632       27.5405475121
 In        18.4107979923       24.4375392482       33.5798528200
 In        18.4109510551       24.4473960810       39.6067299962
 In        18.4051314484       27.4529214029       12.3963623996
 In        18.4107911537       27.5461547545       18.4167777436
 In        18.4938787829       27.5365664986       24.4523563723
 In        18.4883561522       27.4608289201       30.5592782215
 In        18.4060428564       27.4437435863       36.5895752335
 In        18.4086142463       27.5427748256       42.5506131006
 In        18.4140322077       30.5495806406       15.3961735609
 In        18.4138982438       30.5619083337       21.4246364289
 In        18.4887193529       30.5479172663       27.4635924406
 In        18.4906873340       30.4685371974       33.5653347051
 In        18.3967723332       30.4756993256       39.5205643195
 In        18.4108008144       33.5717143759       18.4154772281
 In        18.4135920081       33.5742604374       24.4372081118
 In        18.4907602604       33.4956945031       30.4823920904
 In        18.4149440304       33.4870184291       36.5252096522
 In        18.3171440838       33.7411200016       42.2084267673
 In        18.4113449598       36.5882959091       21.4324895721
 In        18.4145130148       36.5192707532       27.4533311704
 In        18.4145119648       36.5156060926       33.4935943318
 In        18.5562320273       36.4317730865       39.7594663814
 In        18.4132625361       39.5979267496       24.5123098226
 In        18.4030897535       39.4469874275       30.4798033893
 In        18.4934752333       39.6877367743       36.5009998205
 In        18.3364928531       42.5372481238       27.5568832136
 In        18.2543669407       42.1271728220       33.7495654032
 Cl        20.0292307745       11.3756337085       20.0454805810
 Cl        20.1614773003       11.2288931105       25.7990020579
 Cl        20.7021810470       10.3682728069       31.3298814787
 As        19.6583807755       13.8402946492       16.6832596378
 As        19.9455418793       14.1091946465       22.8829838872
 As        19.9738527275       13.8750661590       28.9911783774
 Cl        20.2815428733       13.7507476700       34.7230424332
 As        19.6532319742       16.6737688257       13.8575934973
 As        19.9473176551       16.9921483192       19.9013732395
 As        19.9700218605       16.9698121864       26.0075869420
 As        19.9365441221       16.8988377675       32.0458499990
 Cl        20.1951909144       17.0313719871       37.9699347810
 Cl        20.0435574790       20.0265267879       11.3816078452
 As        19.9082084168       19.9379156083       16.9805745369
 As        19.9980797305       19.9659036145       22.9942979931
 As        19.9442027317       19.9474450620       29.0318567790
 As        19.9317801211       19.9306100744       35.0727462870
 Cl        23.6725028652       20.7011705926       44.6333086157
 As        19.9189802810       22.9134494750       14.0615752139
 As        19.9495709129       22.9694903446       20.0013795391
 As        19.9806995107       22.9899832851       26.0014665876
 As        19.9291400219       22.9513473132       32.0544366779
 As        19.9344142928       22.9531578786       38.1057839821
 Cl        20.7007835967       23.6711490604       44.6327640924
 Cl        20.1737607934       25.8288278499       11.1849162715
 As        19.9609868388       26.0019222498       16.9780024025
 As        20.0000877480       26.0151620900       22.9922381091
 As        19.9710169498       25.9777026779       29.0339272846
 As        19.9324697364       25.9604516245       35.0699585752
 As        19.9709051342       26.0086716796       41.1277708167
 As        19.9597067095       28.9781592336       13.8626262127
 As        19.9342483658       29.0343764479       19.9384774429
 As        19.9732643738       29.0261620322       25.9817394588
 As        19.9858894980       28.9879722038       32.0290086983
 As        19.9512637770       28.9831134076       38.0407918010
 Cl        20.1659689567       29.1883847834       43.7743120546
 As        19.9369005360       32.0411201666       16.9017984111
 As        19.9295344927       32.0462590615       22.9515240105
 As        19.9908891946       31.9921441393       28.9963271682
 As        19.9763815958       32.0121900796       35.0199520501
 As        19.9101372104       32.0999923319       40.9288091229
 Cl        20.2927369066       34.7214977911       13.7512291564
 As        19.9295887600       35.0683424199       19.9348584701
 As        19.9525311647       35.0318012091       25.9643645322
 As        19.9584177524       34.9839241924       32.0210613713
 As        19.9278421472       35.0383449373       37.9724135744
 Cl        20.0526903739       34.9599356887       43.6228853564
 Cl        20.2119484084       37.9617278202       17.0213371267
 As        19.9245035924       38.1076254871       22.9741837446
 As        19.9620852874       37.9879302768       28.9825357821
 As        19.9165601187       37.9658743627       35.0508796450
 As        19.6493984077       38.2988160789       41.1333137717
 Cl        20.2977003088       41.2304407472       20.2500478940
 As        19.9545827766       41.1267349365       26.0575919703
 As        19.8915749051       40.8988018992       32.0976634662
 As        19.6350946425       41.1105363400       38.3083213409
 Cl        20.6973309587       44.6140794467       23.7087769781
 Cl        20.1288786925       43.7483465139       29.2004853099
 Cl        19.9925302583       43.5652022189       34.9614941891
 In        21.2516251111       12.7946587022       18.3198549634
 In        21.4315279692       12.7037039111       24.3670625059
 In        21.4322103527       12.3891396286       30.5443381859
 In        21.3468970261       15.3815788263       15.3920400872
 In        21.4942853360       15.6350754529       21.4356133026
 In        21.4253671711       15.4722972356       27.5495178977
 In        21.4288778152       15.3947596004       33.5723782833
 In        21.2601975408       18.3257685852       12.8661510445
 In        21.5037119271       18.4811826110       18.4223241676
 In        21.4960622451       18.4950424335       24.5277681691
 In        21.4253346320       18.4182026011       30.5644669904
 In        21.4263267160       18.4109809108       36.5905595382
 In        21.4326250222       21.4985677426       15.6317980247
 In        21.5024511138       21.5032655246       21.5084906810
 In        21.4326872595       21.4937672094       27.5473843635
 In        21.4285755184       21.4252679254       33.5775420458
 In        21.4290746832       21.4282663515       39.6070047252
 In        21.4247954400       24.4231305890       12.6978628805
 In        21.4306061232       24.5248262598       18.5608570214
 In        21.5033649028       24.5174170523       24.5204112423
 In        21.4362757785       24.4485416108       30.5612349183
 In        21.4232716454       24.4321587527       36.5858537780
 In        21.4324582787       24.4565820050       42.6120465004
 In        21.4113803254       27.5504776122       15.4756182374
 In        21.4356755082       27.5436915483       21.4426221150
 In        21.4354275792       27.5282928144       27.5343438364
 In        21.4332110259       27.4576334454       33.5670418464
 In        21.4236036851       27.4515785254       39.5345441316
 In        21.4310014983       30.5375041111       12.3943880441
 In        21.4234598898       30.5637681418       18.4214860792
 In        21.4339809985       30.5513874189       24.4455267962
 In        21.4986601510       30.4804929807       30.5011745561
 In        21.4383342526       30.4707861913       36.5051045166
 In        21.4330455859       30.6284175384       42.3007780474
 In        21.4279474794       33.5682841440       15.3990772526
 In        21.4240793442       33.5721354103       21.4255542482
 In        21.4369757495       33.5046088474       27.4591205069
 In        21.5057987877       33.4904642701       33.4978967341
 In        21.4370659852       33.5001664594       39.3658567556
 In        21.4256350445       36.5855146659       18.4155598746
 In        21.4187692930       36.5831357623       24.4386927897
 In        21.4376279123       36.4391804141       30.4750613814
 In        21.5057695780       36.5151903087       36.5153471694
 In        21.2642885604       36.6717387326       42.1397821041
 In        21.4256655156       39.6032260064       21.4385653236
 In        21.4195110696       39.5224654868       27.4642700427
 In        21.4307318845       39.3576843111       33.5038026829
 In        21.3441015318       39.6059871955       39.6087919456
 In        21.4319181567       42.6080093405       24.5251090842
 In        21.4211746080       42.2924070616       30.6361180876
 In        21.2457701258       42.1304529915       36.6758654762
 Cl        22.8255265003       11.3101319581       17.1697087598
 Cl        22.9883781330       11.2531097449       22.9845241749
 Cl        23.1810492752       11.1597925960       28.8243368461
 Cl        23.6717019980       10.3671542236       34.2953225885
 As        22.6340293778       13.7667770468       13.7767919312
 As        22.8969714858       14.0697999568       19.9127249690
 As        22.9850777897       14.0224330732       25.9555710686
 As        22.9914469663       13.8639726380       32.0097548537
 Cl        23.3110128431       13.7945083879       37.8094581924
 Cl        22.8202205075       17.1765922562       11.3585011552
 As        22.9440920397       16.9267307413       16.9209250810
 As        23.0208380443       17.0351879550       22.9935357959
 As        22.9797915771       16.9660034820       29.0139623602
 As        22.9552624962       16.8990226176       35.0646315683
 Cl        23.3170630204       17.1758759521       41.2002593588
 As        22.8895698508       19.9605888333       14.1027387856
 As        22.9881114516       19.9956348688       19.9732606783
 As        22.9723246366       20.0290880281       26.0209404227
 As        22.9606023779       19.9463107891       32.0414662478
 As        22.9570189363       19.9360060823       38.1041081918
 Cl        22.9897667736       23.0352087871       11.2567957793
 As        22.9665169771       23.0185814119       17.0649899246
 As        23.0077796437       23.0100890636       23.0126038631
 As        22.9574121508       22.9905649231       29.0337501724
 As        22.9612655932       22.9648287066       35.0609667840
 As        22.9921833123       22.9901037668       41.1389051964
 As        22.9759568931       25.9796204394       14.0270511218
 As        22.9827313082       26.0165244475       20.0129750083
 As        22.9617637173       26.0304577168       26.0362090851
 As        22.9473444457       25.9901062403       32.0367822777
 As        22.9707140441       25.9768504034       38.0505116908
 Cl        23.1882213301       26.1683422452       43.8375418406
 Cl        23.1993180678       28.8237259057       11.1624723015
 As        22.9675156223       29.0196920500       16.9560528329
 As        22.9476744202       29.0184398772       22.9812360536
 As        22.9905231642       29.0100399439       28.9922052388
 As        22.9756583997       28.9872772005       35.0097100277
 As        22.9855144774       29.0423059931       40.9806142990
 As        22.9903013583       32.0064427624       13.8672556307
 As        22.9575782687       32.0368947216       19.9499471110
 As        22.9559536097       32.0329384723       25.9538579117
 As        23.0089560670       31.9878058261       31.9952371256
 As        22.9944235284       31.9744209246       37.9660776985
 Cl        22.9835515423       32.0157671762       43.7449654830
 Cl        23.6868080329       34.2882372061       10.3666725568
 As        22.9559373028       35.0572055577       16.9027297031
 As        22.9471736547       35.0672385899       22.9519434941
 As        22.9748441039       34.9749071154       28.9759850436
 As        23.0103323604       34.9984405380       35.0036645115
 As        22.8903493196       35.0585411112       40.8740510617
 Cl        23.3299433725       37.8005227124       13.7870803100
 As        22.9540196781       38.0988968297       19.9424562057
 As        22.9657272955       38.0469298476       25.9828108426
 As        22.9785189756       37.9418652379       31.9739721569
 As        22.9263168925       38.0677729652       38.0490540901
 Cl        22.8355688636       37.8242752895       43.6254897950
 Cl        23.3467956989       41.1803754153       17.1484933166
 As        22.9763306730       41.1443524638       23.0102223307
 As        22.9786904129       40.9737996303       29.0512667654
 As        22.8753699528       40.8845474621       35.0532439678
 As        22.6261193884       41.2284754177       41.2115443570
 Cl        23.6817816549       44.6216671438       20.6853366389
 Cl        23.1805497388       43.8470448017       26.1950544803
 Cl        22.9675737130       43.7407733838       32.0174772558
 Cl        22.8009848346       43.6438990428       37.8157851187
 In        24.2706799231       12.5460217034       15.3116758328
 In        24.3692625004       12.6999052262       21.4360581216
 In        24.5098123072       12.6291506604       27.4587344328
 In        24.4573549550       12.3893162130       33.5693704656
 In        24.2660077363       15.3064160539       12.5528815323
 In        24.5205594054       15.4811599083       18.4012720428
 In        24.5111319014       15.5662846147       24.5145405468
 In        24.4344687618       15.4693604904       30.5633789602
 In        24.4456508130       15.3940083344       36.5869203394
 In        24.5182920593       18.4100934608       15.4829813156
 In        24.5247806729       18.5006904455       21.4397147197
 In        24.4500190817       18.5580267969       27.5479721734
 In        24.4376313213       18.4211658825       33.5798325947
 In        24.4480125368       18.4140618493       39.6098232701
 In        24.3573721705       21.4862066108       12.7075343291
 In        24.5223972391       21.4943802607       18.5005352351
 In        24.5187511374       21.5074261209       24.5209277521
 In        24.4469755984       21.4955403430       30.5580209275
 In        24.4380110526       21.4214223727       36.5807110548
 In        24.4584750646       21.4307233657       42.6113567661
 In        24.4482883907       24.5146135547       15.5787349337
 In        24.5163165335       24.5209010110       21.5128648384
 In        24.4503453569       24.5153140638       27.5380654059
 In        24.4449246027       24.5060890971       33.5661125053
 In        24.4391995677       24.4369304876       39.5394938193
 In        24.5163924777       27.4581998395       12.6333678897
 In        24.4453246382       27.5383034550       18.5038499503
 In        24.4468748106       27.5345093968       24.5164815068
 In        24.4493048035       27.5230705862       30.5536708809
 In        24.4503699775       27.4620276990       36.5054722379
 In        24.5145850460       27.5399903993       42.3696577356
 In        24.4326629572       30.5635447307       15.4692584412
 In        24.4377744275       30.5502370028       21.4969496808
 In        24.4500690347       30.5482319365       27.4680664924
 In        24.5131247450       30.4793125832       33.5015775781
 In        24.5116734884       30.4842179266       39.4367707740
 In        24.4568746647       33.5647018842       12.3934680043
 In        24.4335619163       33.5724320763       18.4235803866
 In        24.4376563298       33.5645244692       24.4484845645
 In        24.5125185254       33.4947031766       30.4836171148
 In        24.5238903276       33.5012024227       36.5034840828
 In        24.3624503380       33.5696440957       42.2928686911
 In        24.4469853624       36.5801194439       15.3973958433
 In        24.4370203630       36.5807063478       21.4240125514
 In        24.4409617702       36.5038523552       27.4700764055
 In        24.5226466244       36.5029274836       33.5053039815
 In        24.5212560665       36.5890312475       39.4571707260
 In        24.4477954362       39.5992115869       18.4185631232
 In        24.4292260975       39.5335610629       24.4347752745
 In        24.4962531317       39.4264497638       30.4921496243
 In        24.5186253323       39.5154174116       36.5904417168
 In        24.2770982955       39.6821793668       42.3857308908
 In        24.4530344880       42.6063768614       21.4400289289
 In        24.5086788315       42.3673238678       27.5509314645
 In        24.3592167869       42.2957483838       33.5709727824
 In        24.2687826320       42.4495878904       39.6860386938
 Cl        25.8163601063       11.2306308138       20.1679058012
 Cl        26.0076297024       11.1876576114       26.0041765582
 Cl        26.1730726881       11.1625858635       31.8131590917
 Cl        26.6506758639       10.4527016921       37.2732617637