      92
 i =        1, E =     -2597.7019891029
 As        10.4428037063       13.5198109523       13.5989250246
 In        17.9294732392       11.6945996199       14.8125354637
 Cl         6.8475247848       15.8345805793       14.3331981868
 Cl        15.6942783882       20.4825974259       10.7398929923
 Cl        18.1006848774       19.7410485072       17.1670237808
 As        16.3424952350       10.2576101535       16.4240213899
 Cl        19.0774492552       14.1142168253       20.2539087288
 Cl        18.3327107334       11.4345855515       22.9610804262
 In        14.7940831475       14.9068766484       20.8782154570
 Cl        19.2512245507       10.5420937364       19.2500283433
 As        13.3986082923       10.5907179781       13.5076001968
 Cl        10.0324308859       16.7849742742       12.2155277860
 Cl        15.4853221684       10.7840575940       10.0114848791
 Cl        10.2614965634       19.5100943696       19.3170979001
 Cl        12.9382929786       20.0469623079       13.1649113114
 In         8.9553505743       17.7672708002       17.9091325022
 In        17.5177740948        8.9781714095       18.3161784783
 Cl        22.3081888804       10.0919726111       16.2756541073
 Cl        10.3966507333        7.3336265290       12.1813880538
 Cl        19.1463011589       10.3054797254       13.4280711867
 Cl        14.6354972621       14.6012025204       23.1463636839
 In        11.6819076241       12.8938747658        9.0299510762
 Cl        16.1044302385       23.0119480749       16.2764295728
 In        11.8524545238       11.8537212800       15.2832916157
 Cl         9.4206574622       16.3393431528       19.8163690085
 Cl        13.2942221651       17.8849285821       10.0964388605
 As        14.1182990560       19.4375189155       17.1122075791
 In        21.7595428400       12.1290444684       17.1824889328
 Cl        12.9337476012        7.4536789929       15.1954453959
 As        15.9410343573       13.0520136913       19.4744748168
 Cl        13.1765774266       19.8383407357       20.6542803286
 Cl        23.1591236186       18.5358234662       11.9844847007
 As        16.6644971226       19.3409919831       13.9455867211
 In        17.9272757949       14.8091782368       11.8419584611
 Cl        22.7687460840       13.9707057650       15.5759363328
 Cl        10.7866355822       11.0079251261       10.4448355676
 Cl        11.9382085567       22.9798841705       18.9066358896
 In        11.6793332493       17.8457734147       20.7910932520
 Cl        12.5985165342       10.4301925457       17.5947107716
 In        18.4077990761       17.8518062207        9.3566495143
 Cl        11.6064900832       12.2387114504        6.8533848944
 In        16.0860633162       20.7245775287       16.0063892916
 Cl        20.3980380986       19.5584875488       14.2808601445
 Cl        16.2129550727        7.3775283068       13.5131103766
 Cl        10.0800292982       13.1279932196       17.4202786105
 In         9.1895747938       12.5702676207       11.6042011747
 In        14.9613206778        8.8878574375       14.7146723631
 Cl        18.3264495845        6.8520373959       18.2218237680
 As        13.6629366745       16.7059911483       13.7350940825
 Cl        18.3865742981       18.7924361374        7.2743176343
 Cl        10.9021641348       17.7937228100       22.9365988242
 Cl        22.6732441708       12.7763203038       19.1828172004
 In        20.5685783690       14.9704552215       15.2908440068
 Cl        19.3725562850       19.7548228158       10.9281453248
 In        12.4868089629       18.6376044637       15.2030330260
 Cl        20.4368946290       16.9455766864       16.8131534740
 As        16.7872551573       16.2259266628       16.6629302472
 As        10.5391388075       16.9119454904       16.1167446366
 Cl        18.2644692305       23.1486253067       12.0427385492
 In        14.7234812275       12.0958085638       11.7617644955
 Cl        14.5202870948       15.8018648665        6.9976210976
 Cl        20.6114733561       16.9515230552        9.8748665497
 In        18.5589463131       18.0017991141       15.2767216530
 Cl         6.8418243839       18.6251071736       17.8857573620
 Cl        19.0242766974       13.5579405218       10.2273245391
 In        17.6901924798       11.7728159255       20.8036228859
 In        12.0171256354       15.2207666294       12.4037181666
 As        16.6011619231       16.7990347631       10.7805893378
 In        12.3340596808       20.8072832031       18.3179100672
 In        11.6780224409        8.7288288122       13.4403608286
 In        14.6307804535       11.7688548042       17.6651024564
 In        20.9566731279       18.0102614649       12.3145206094
 Cl        10.1493400729       10.0005377830       15.0093091165
 In         9.1360283360       15.6271069830       14.3249659284
 Cl         7.1004323465       11.6667437478       11.4775806204
 In        14.7142799096       15.9565151211        9.2849403579
 In        14.8067127573       18.4815940968       12.1547762713
 As        12.9980688483       16.0962294316       19.4330591531
 In        11.6109520368       14.9801166051       17.5185282380
 In        17.8332745986       14.3338456732       18.1479460006
 Cl        16.2555767339       16.9660942132       20.4538358723
 In        15.0306830685       17.2919661355       18.2442403266
 Cl         9.5137945506       14.0470807416        9.5973457101
 As        13.3707255712       14.0441597307       10.5244287663
 As        16.4297661427       13.3197785859       13.3607393577
 Cl        10.9884960131       20.5500883272       16.0954178751
 Cl        16.2642639518        9.4705722227       20.3441426130
 In        15.2083277799       14.9936330094       14.9552191679
 As        13.4609224707       13.6237926171       16.3045441727
 As        19.4634455021       16.2658320315       13.4225466545
 In        17.5916662672       20.9876033867       12.3139956693
 As        19.4012908516       13.0493471683       16.5006294643
      92
 i =        2, E =     -2597.7022370156
 As        10.4441425463       13.5206629683       13.5983496057
 In        17.9291194221       11.6925582912       14.8131167742
 Cl         6.8488981653       15.8342902485       14.3338321783
 Cl        15.6947276811       20.4827572965       10.7395037902
 Cl        18.1003453270       19.7409543038       17.1676092572
 As        16.3419208384       10.2581168084       16.4244062457
 Cl        19.0775813162       14.1137608758       20.2540821788
 Cl        18.3320593040       11.4348658324       22.9608440486
 In        14.7933215381       14.9054112358       20.8790571499
 Cl        19.2516160375       10.5419440070       19.2491121881
 As        13.3980644037       10.5898115921       13.5091807561
 Cl        10.0325701016       16.7854739713       12.2159393948
 Cl        15.4846039208       10.7845639454       10.0121783144
 Cl        10.2606488732       19.5097988279       19.3173529051
 Cl        12.9387199557       20.0464471364       13.1651895157
 In         8.9527461051       17.7658916647       17.9083176589
 In        17.5173445118        8.9763044250       18.3150852521
 Cl        22.3070074786       10.0936838243       16.2761277046
 Cl        10.3963912779        7.3334725697       12.1806558878
 Cl        19.1456958110       10.3058681693       13.4286612568
 Cl        14.6353248303       14.6009071613       23.1449147367
 In        11.6824558779       12.8919731082        9.0288507559
 Cl        16.1037604397       23.0081131870       16.2755068150
 In        11.8526888738       11.8538171253       15.2825397769
 Cl         9.4211204273       16.3377019956       19.8168775862
 Cl        13.2930308757       17.8847825151       10.0965804843
 As        14.1176489118       19.4344561758       17.1107871608
 In        21.7589775359       12.1320192877       17.1823067617
 Cl        12.9334574545        7.4528456282       15.1962650604
 As        15.9414145368       13.0523802796       19.4733726588
 Cl        13.1773767206       19.8375158601       20.6545032614
 Cl        23.1568768953       18.5346444054       11.9850750307
 As        16.6642623578       19.3398307614       13.9456876126
 In        17.9271873635       14.8070376611       11.8428178930
 Cl        22.7690752515       13.9706303072       15.5755985325
 Cl        10.7872979915       11.0066085462       10.4458056440
 Cl        11.9392255890       22.9769921780       18.9054508162
 In        11.6784880751       17.8419682665       20.7926916153
 Cl        12.5983183220       10.4292208113       17.5944978444
 In        18.4067956820       17.8504015700        9.3543908161
 Cl        11.6069045639       12.2389456873        6.8536827730
 In        16.0843998631       20.7247342760       16.0075251238
 Cl        20.3981738614       19.5584638841       14.2809840483
 Cl        16.2130524680        7.3781253802       13.5131734144
 Cl        10.0793619915       13.1277555398       17.4196929464
 In         9.1886179491       12.5678051520       11.6055746364
 In        14.9620996127        8.8866423712       14.7152011540
 Cl        18.3263108939        6.8513130534       18.2214853442
 As        13.6631675751       16.7043112859       13.7355756108
 Cl        18.3859364617       18.7912364464        7.2761286677
 Cl        10.9027627725       17.7937516476       22.9360551851
 Cl        22.6724952937       12.7765904471       19.1830916501
 In        20.5673521583       14.9688665021       15.2898814937
 Cl        19.3725305171       19.7549048647       10.9276836538
 In        12.4865180365       18.6334014407       15.2031427299
 Cl        20.4371239717       16.9445578765       16.8134123677
 As        16.7854926635       16.2243507012       16.6628582304
 As        10.5398891581       16.9096514884       16.1179109147
 Cl        18.2639395579       23.1472500758       12.0436232867
 In        14.7230829588       12.0936395121       11.7625375772
 Cl        14.5205302345       15.8013227176        6.9997887475
 Cl        20.6115718765       16.9501807614        9.8748604411
 In        18.5558246469       17.9980213241       15.2764534300
 Cl         6.8431033551       18.6244580540       17.8851333145
 Cl        19.0233218972       13.5585394680       10.2278588470
 In        17.6897426725       11.7710697396       20.8054610879
 In        12.0189336482       15.2195038956       12.4038987879
 As        16.6010077104       16.7972256893       10.7814628004
 In        12.3336804065       20.8083287887       18.3189975833
 In        11.6769523710        8.7265609776       13.4406285382
 In        14.6312235333       11.7683392117       17.6654287204
 In        20.9593836901       18.0086667644       12.3146393968
 Cl        10.1484359912        9.9999974698       15.0086820437
 In         9.1355590589       15.6269232742       14.3259928289
 Cl         7.0998788475       11.6665297472       11.4779944097
 In        14.7130028965       15.9568893905        9.2839214085
 In        14.8082306708       18.4779860797       12.1568332672
 As        12.9994326982       16.0960873003       19.4316293001
 In        11.6127132913       14.9785915642       17.5188256114
 In        17.8326709359       14.3318698640       18.1471496246
 Cl        16.2559108951       16.9656517829       20.4538253679
 In        15.0299205653       17.2912486551       18.2430492804
 Cl         9.5145597876       14.0471237520        9.5983600970
 As        13.3710383484       14.0434478990       10.5256905034
 As        16.4287951629       13.3199380693       13.3622455616
 Cl        10.9883777056       20.5504617059       16.0953584704
 Cl        16.2632617021        9.4707799500       20.3440232964
 In        15.2076760813       14.9949379463       14.9553783529
 As        13.4616958236       13.6227989116       16.3040459406
 As        19.4618969441       16.2643204292       13.4237001368
 In        17.5914938745       20.9894337964       12.3137233275
 As        19.3997728761       13.0500533246       16.4997410520
      92
 i =        3, E =     -2597.7024921563
 As        10.4469107840       13.5217451257       13.5977527174
 In        17.9280872838       11.6893828823       14.8138984536
 Cl         6.8512323697       15.8336465199       14.3354889400
 Cl        15.6958852382       20.4823046042       10.7394706702
 Cl        18.0988884787       19.7402262297       17.1681492230
 As        16.3408708782       10.2582423411       16.4252438491
 Cl        19.0770590401       14.1124493614       20.2534982701
 Cl        18.3308912809       11.4352114895       22.9619049638
 In        14.7926554598       14.9026690212       20.8790933820
 Cl        19.2512159800       10.5411843614       19.2470197152
 As        13.3969194095       10.5866860682       13.5124693977
 Cl        10.0336887678       16.7856985862       12.2177680290
 Cl        15.4831240981       10.7852758550       10.0133377871
 Cl        10.2589443929       19.5078394473       19.3178745798
 Cl        12.9401178257       20.0434850945       13.1668061605
 In         8.9508771427       17.7630310705       17.9081768393
 In        17.5169713711        8.9736678592       18.3145041185
 Cl        22.3037423716       10.0990949108       16.2777831347
 Cl        10.3953116448        7.3324771629       12.1784320145
 Cl        19.1445676294       10.3063180869       13.4296583871
 Cl        14.6347113035       14.5998776239       23.1429686867
 In        11.6827047578       12.8891538916        9.0289840528
 Cl        16.1020582708       23.0013090811       16.2735706699
 In        11.8521080335       11.8537398132       15.2813419101
 Cl         9.4221485097       16.3342379401       19.8175351053
 Cl        13.2908505369       17.8840458629       10.0973871894
 As        14.1149275114       19.4282304682       17.1082609066
 In        21.7588313539       12.1385303547       17.1819428424
 Cl        12.9330204186        7.4508450576       15.1981602436
 As        15.9424346519       13.0522378044       19.4718248471
 Cl        13.1782561263       19.8342903994       20.6546652620
 Cl        23.1548441811       18.5323920914       11.9859693902
 As        16.6637879473       19.3378642834       13.9459122106
 In        17.9268202148       14.8033523879       11.8441985313
 Cl        22.7689950977       13.9707033609       15.5746714529
 Cl        10.7887137397       11.0036654907       10.4481163223
 Cl        11.9412407593       22.9732029867       18.9034644783
 In        11.6774580671       17.8372904247       20.7935940424
 Cl        12.5986105589       10.4274897109       17.5939220238
 In        18.4060175523       17.8471218986        9.3532860165
 Cl        11.6078896137       12.2389929141        6.8530159663
 In        16.0823560983       20.7225017155       16.0091517325
 Cl        20.3976554578       19.5566996257       14.2808255455
 Cl        16.2136559626        7.3791045237       13.5130403274
 Cl        10.0784341471       13.1277507610       17.4182815445
 In         9.1880749565       12.5641436777       11.6067723974
 In        14.9624396212        8.8846771594       14.7162403994
 Cl        18.3261045287        6.8489646238       18.2206500474
 As        13.6631456218       16.7001384035       13.7366818609
 Cl        18.3843644098       18.7892692664        7.2780346572
 Cl        10.9036151252       17.7936341075       22.9364847511
 Cl        22.6706150522       12.7772903491       19.1836113036
 In        20.5662852769       14.9669987965       15.2885569651
 Cl        19.3720284824       19.7542836534       10.9267071913
 In        12.4851026855       18.6285892150       15.2025845359
 Cl        20.4370861157       16.9413871783       16.8131217240
 As        16.7820475082       16.2206994249       16.6628843964
 As        10.5413720595       16.9044093838       16.1206603224
 Cl        18.2633482741       23.1463034283       12.0455820766
 In        14.7222110276       12.0898861950       11.7643150170
 Cl        14.5209574094       15.7998590714        7.0029359879
 Cl        20.6110006569       16.9472672991        9.8749339626
 In        18.5514734788       17.9932416722       15.2769842199
 Cl         6.8438425322       18.6236406085       17.8835855190
 Cl        19.0213547901       13.5595119177       10.2287185726
 In        17.6886568228       11.7679569529       20.8063864327
 In        12.0211827555       15.2175247350       12.4036225534
 As        16.6004195883       16.7927248400       10.7831637942
 In        12.3331889435       20.8064482363       18.3199615545
 In        11.6756456660        8.7233714997       13.4418727828
 In        14.6305562940       11.7672559727       17.6664128092
 In        20.9604167995       18.0056959633       12.3159279431
 Cl        10.1467073254        9.9989063687       15.0070231627
 In         9.1357129279       15.6264064467       14.3267882545
 Cl         7.0978176056       11.6655953192       11.4789970590
 In        14.7104264119       15.9581537182        9.2840575607
 In        14.8110601601       18.4739398312       12.1591610783
 As        13.0021966298       16.0949243619       19.4289813825
 In        11.6152206273       14.9741154307       17.5194257097
 In        17.8324538383       14.3285745801       18.1469268673
 Cl        16.2557996542       16.9639985040       20.4530518701
 In        15.0296783871       17.2901571636       18.2420969731
 Cl         9.5169178899       14.0460125637        9.6014688252
 As        13.3721754537       14.0410250035       10.5275912415
 As        16.4263817234       13.3192737437       13.3660007793
 Cl        10.9889886961       20.5502760348       16.0953459995
 Cl        16.2613929626        9.4710640548       20.3430111875
 In        15.2066967655       14.9974109654       14.9557531147
 As        13.4637065063       13.6203888914       16.3030071081
 As        19.4588611858       16.2611485320       13.4248673605
 In        17.5906039608       20.9907926184       12.3128211338
 As        19.3962983494       13.0503291286       16.4978902331
      92
 i =        4, E =     -2597.7027331590
 As        10.4499071567       13.5214059891       13.5969283786
 In        17.9252648144       11.6870364903       14.8149496030
 Cl         6.8535484684       15.8326003540       14.3385021417
 Cl        15.6974167897       20.4806336771       10.7397589862
 Cl        18.0961431894       19.7380565637       17.1685999724
 As        16.3393976083       10.2565571851       16.4269900750
 Cl        19.0759894656       14.1100255679       20.2521643421
 Cl        18.3284979148       11.4357906683       22.9629176538
 In        14.7926740952       14.8984054042       20.8777284362
 Cl        19.2493114260       10.5395548759       19.2438566380
 As        13.3955953105       10.5815163244       13.5162964488
 Cl        10.0365298014       16.7853642784       12.2214757748
 Cl        15.4811970025       10.7851852152       10.0139840604
 Cl        10.2565536595       19.5034257514       19.3188009927
 Cl        12.9428236518       20.0371728653       13.1698083856
 In         8.9500144759       17.7599286220       17.9092935726
 In        17.5171524676        8.9704426183       18.3142706954
 Cl        22.2980034818       10.1084759777       16.2804557815
 Cl        10.3943266430        7.3314889228       12.1753888041
 Cl        19.1436525197       10.3057736694       13.4300591016
 Cl        14.6334017687       14.5976310418       23.1412112053
 In        11.6831578595       12.8855659342        9.0292515920
 Cl        16.0989039790       22.9936742165       16.2706646054
 In        11.8504057755       11.8533621124       15.2803822372
 Cl         9.4238787140       16.3285824799       19.8184001215
 Cl        13.2877318411       17.8826876377       10.0996826800
 As        14.1105258716       19.4197675478       17.1051812954
 In        21.7576567135       12.1499838118       17.1812558395
 Cl        12.9324297403        7.4471665646       15.2013159257
 As        15.9434318087       13.0502824564       19.4704932403
 Cl        13.1788073780       19.8276612910       20.6542993500
 Cl        23.1527244898       18.5283759067       11.9873081634
 As        16.6636046485       19.3358443344       13.9457685596
 In        17.9245414094       14.7991777060       11.8473329623
 Cl        22.7686911088       13.9714074752       15.5726923961
 Cl        10.7909075336       10.9988050873       10.4519501247
 Cl        11.9447029644       22.9682830922       18.9005312165
 In        11.6766289634       17.8336933596       20.7936317389
 Cl        12.5990639155       10.4245418199       17.5930765670
 In        18.4055663625       17.8432933353        9.3543403549
 Cl        11.6096014966       12.2392551383        6.8529920781
 In        16.0799847634       20.7156912625       16.0103579899
 Cl        20.3955389916       19.5516767328       14.2805784046
 Cl        16.2150995033        7.3802883626       13.5124680903
 Cl        10.0765374954       13.1269077158       17.4158695383
 In         9.1873496677       12.5601055110       11.6082541046
 In        14.9620769727        8.8825067051       14.7181583844
 Cl        18.3254617423        6.8451010126       18.2192995278
 As        13.6622849873       16.6954792933       13.7373219606
 Cl        18.3814420233       18.7860543409        7.2801755683
 Cl        10.9050559681       17.7931729875       22.9374839002
 Cl        22.6678784502       12.7793962119       19.1859415428
 In        20.5651307926       14.9654381336       15.2874016190
 Cl        19.3705262624       19.7521740604       10.9253768346
 In        12.4818271231       18.6240665614       15.2014670466
 Cl        20.4363650565       16.9357350672       16.8121428110
 As        16.7787674771       16.2155888048       16.6638649019
 As        10.5435741542       16.8966096650       16.1246248077
 Cl        18.2628177278       23.1464512579       12.0490227481
 In        14.7209276477       12.0864937541       11.7683522241
 Cl        14.5214589128       15.7971095233        7.0060354751
 Cl        20.6094942403       16.9423473874        9.8753521641
 In        18.5477955858       17.9893484199       15.2784588282
 Cl         6.8445323317       18.6221583580       17.8808324646
 Cl        19.0191352228       13.5595597373       10.2284210706
 In        17.6878982135       11.7640338773       20.8074433250
 In        12.0234061486       15.2150627158       12.4024020025
 As        16.5992431599       16.7861590924       10.7852807395
 In        12.3323479444       20.8016782975       18.3205153659
 In        11.6732241390        8.7188827302       13.4426575997
 In        14.6291532747       11.7659141918       17.6680224066
 In        20.9593160209       18.0028994584       12.3176935887
 Cl        10.1438578373        9.9972715571       15.0041832291
 In         9.1380013745       15.6250609091       14.3272012713
 Cl         7.0955171102       11.6643962305       11.4808925165
 In        14.7070748579       15.9603063901        9.2864510247
 In        14.8143195980       18.4705889711       12.1606620624
 As        13.0049516847       16.0920518417       19.4261364254
 In        11.6189262978       14.9670163100       17.5202733290
 In        17.8328420937       14.3259177051       18.1469344383
 Cl        16.2551918145       16.9607427420       20.4511878489
 In        15.0306905975       17.2888041836       18.2421815728
 Cl         9.5208626861       14.0434844385        9.6070134233
 As        13.3741996751       14.0364936764       10.5290950138
 As        16.4226842232       13.3169513517       13.3712494022
 Cl        10.9905923535       20.5487005193       16.0952193435
 Cl        16.2584710033        9.4711295921       20.3409886861
 In        15.2057358834       15.0001311053       14.9562686159
 As        13.4662985552       13.6162193418       16.3013304878
 As        19.4546443205       16.2569293905       13.4252937090
 In        17.5896093377       20.9900024429       12.3117856030
 As        19.3925922679       13.0496771755       16.4952771174
      92
 i =        5, E =     -2597.7028253098
 As        10.4504077383       13.5190268893       13.5962714593
 In        17.9248306091       11.6847135495       14.8141079626
 Cl         6.8559298428       15.8315845353       14.3411203757
 Cl        15.6977366489       20.4785044255       10.7395490940
 Cl        18.0945881803       19.7350032042       17.1695571961
 As        16.3386417871       10.2541862908       16.4285641047
 Cl        19.0756911335       14.1080584059       20.2515521208
 Cl        18.3268552391       11.4358351247       22.9652252141
 In        14.7926541547       14.8951197362       20.8771855567
 Cl        19.2473637554       10.5383129939       19.2421939791
 As        13.3942796219       10.5781427885       13.5173734974
 Cl        10.0394297704       16.7853706862       12.2241732712
 Cl        15.4792252483       10.7853861259       10.0154371183
 Cl        10.2552689583       19.5000617483       19.3197874207
 Cl        12.9446170308       20.0329719626       13.1712388372
 In         8.9522200735       17.7573864723       17.9102041296
 In        17.5172408080        8.9688540333       18.3143292730
 Cl        22.2932328622       10.1162099460       16.2823808214
 Cl        10.3928303490        7.3295788981       12.1721682033
 Cl        19.1422502751       10.3058903167       13.4308553796
 Cl        14.6321881296       14.5953517405       23.1403357014
 In        11.6844162101       12.8843356581        9.0326165515
 Cl        16.0959086798       22.9884038029       16.2683577890
 In        11.8490015500       11.8516381518       15.2803911108
 Cl         9.4250564869       16.3246664576       19.8185073451
 Cl        13.2852893851       17.8818840692       10.1023263956
 As        14.1082158209       19.4155650186       17.1045262106
 In        21.7575691477       12.1544064138       17.1827084319
 Cl        12.9318344047        7.4446234477       15.2028847899
 As        15.9444790113       13.0471644870       19.4708941190
 Cl        13.1793292225       19.8225490824       20.6533957936
 Cl        23.1523488863       18.5248767124       11.9882848447
 As        16.6642959407       19.3337777040       13.9449023952
 In        17.9238651870       14.7956180350       11.8468763781
 Cl        22.7690085093       13.9730834682       15.5704950997
 Cl        10.7922352392       10.9960873284       10.4547163284
 Cl        11.9474905635       22.9660833810       18.8988415959
 In        11.6767443465       17.8314979241       20.7929041269
 Cl        12.5990195684       10.4221468689       17.5926167418
 In        18.4048646548       17.8416944877        9.3566266535
 Cl        11.6107899966       12.2389983524        6.8520063743
 In        16.0781164263       20.7150045641       16.0105220490
 Cl        20.3934029094       19.5471976979       14.2811569523
 Cl        16.2160587721        7.3814598442       13.5122581946
 Cl        10.0748149469       13.1248755149       17.4137406464
 In         9.1882721140       12.5588684560       11.6094474729
 In        14.9615814325        8.8806356904       14.7187420338
 Cl        18.3244579041        6.8423794015       18.2183730098
 As        13.6614609523       16.6948018401       13.7365819891
 Cl        18.3786475630       18.7833929176        7.2812058702
 Cl        10.9064165297       17.7924952608       22.9380269041
 Cl        22.6656187336       12.7822878765       19.1885587904
 In        20.5638603635       14.9648690477       15.2860917218
 Cl        19.3691183390       19.7498517135       10.9248142332
 In        12.4795430059       18.6208291782       15.2016908335
 Cl        20.4354742286       16.9322120677       16.8123343625
 As        16.7793480818       16.2141011900       16.6649475546
 As        10.5447231794       16.8929007946       16.1271057704
 Cl        18.2620211974       23.1453046116       12.0522933237
 In        14.7209861818       12.0843193067       11.7686729012
 Cl        14.5216387310       15.7947902018        7.0081122555
 Cl        20.6080304891       16.9385343988        9.8763280045
 In        18.5470432385       17.9879881801       15.2785378952
 Cl         6.8442177131       18.6210007747       17.8784344815
 Cl        19.0167236357       13.5596053210       10.2287472483
 In        17.6867668463       11.7637384532       20.8044801269
 In        12.0245063848       15.2128086506       12.4009189286
 As        16.5985291590       16.7842051432       10.7864219034
 In        12.3327884535       20.7978783861       18.3193920393
 In        11.6746980433        8.7193502856       13.4444824413
 In        14.6287937645       11.7640476819       17.6685059691
 In        20.9561571999       18.0011508420       12.3174816491
 Cl        10.1416003832        9.9961870673       15.0018949469
 In         9.1389836958       15.6228907725       14.3278927052
 Cl         7.0943936197       11.6636022065       11.4826064413
 In        14.7053297947       15.9609585219        9.2868182263
 In        14.8154588782       18.4689442256       12.1604958715
 As        13.0048467708       16.0896397087       19.4265438909
 In        11.6212652594       14.9644720472       17.5207577098
 In        17.8330463852       14.3255811247       18.1468654905
 Cl        16.2554494196       16.9582276539       20.4500801476
 In        15.0310158538       17.2875189871       18.2428091835
 Cl         9.5233012048       14.0417748262        9.6108444085
 As        13.3751732680       14.0335718456       10.5284366586
 As        16.4205421582       13.3150740984       13.3737517007
 Cl        10.9912980028       20.5465966077       16.0947426927
 Cl        16.2563690438        9.4705040512       20.3393024422
 In        15.2051782509       15.0008155002       14.9565262824
 As        13.4671682959       13.6134407644       16.3000692801