     149
 i =       70, E =     -3704.4099175479
 Hg        12.3096412853       13.4875544443       11.1343624263
 Hg        12.3057194122       10.9476338856       14.1483505185
 Hg        10.5606057317       14.3717590179       14.4488475365
 Hg        15.9199779441       15.8359306567        9.9090859535
 Hg        15.8211493781       12.9848367648       13.2944714502
 Hg        13.5400765533       16.7809467139       13.4865677854
 Hg        15.8951777958       10.1220813356       16.6704316936
 Hg        13.5355892708       13.8243254520       16.9873615347
 Hg        11.6617471796       17.2980781488       16.9233217875
 Hg        19.3146997643       15.4386919507       12.5048854591
 Hg        17.1661968223       19.1507504552       12.7098739694
 Hg        19.3022921404       12.6035635044       15.8674356666
 Hg        17.0755146421       16.3303125761       16.1183295564
 Hg        14.6330561950       19.6760155710       16.3710100048
 Hg        17.1411607620       13.4462164485       19.4752656452
 Hg        14.6259718264       17.1349337158       19.3793211739
 Hg        11.5660831060       10.5082537372        8.6592173171
 Hg         9.2503111418       14.2904363503        8.8374271553
 Hg        11.5600451456        8.0138737524       11.6162786866
 Hg         7.7316108534       11.1297171112       11.6995637344
 Hg         7.0282753070       15.1847809480       12.0113248813
 Hg         9.2139333052        8.8531061102       15.2920810025
 Hg         6.9920893116       12.1310093122       15.6493991040
 Hg        14.6425612145       12.5367628753        7.8933921235
 Hg        12.1708771121       16.5259985022        7.6526498662
 Hg        14.9889065125        9.2603742085       10.1462614944
 Hg         9.5303520716       17.8480773192       10.6527052677
 Hg        14.6238081469        7.5946321249       13.7572035416
 Hg         7.9852780965       17.9989352826       14.5107676057
 Hg        12.1115622240        8.0314742842       17.7233909297
 Hg         9.4994232602       11.2376459954       18.4912231054
 Hg         7.9571068764       15.0693245522       17.9925745908
 Hg        18.2865139206       13.5747766154        6.5746996122
 Hg        15.5153378637       18.6042404377        7.2944094576
 Hg        18.2675507909       11.8086656696        9.7936426696
 Hg        13.2873839934       19.6219191151       10.2396919840
 Hg        18.2576431951        9.3269102090       12.7346002432
 Hg        10.6759521776       20.9058951237       13.2319932122
 Hg        18.2563888751        6.4527398536       15.0174554802
 Hg         9.1598842938       20.8856341804       16.8236911890
 Hg        15.4590380322        8.0192221730       19.8379573651
 Hg        13.2531795047       11.1088005701       20.3256361965
 Hg        10.6468909444       14.2897290464       21.0726746397
 Hg         9.1374045315       17.8245678966       20.4585733514
 Hg        21.1924731705       14.4278959403        9.3193640223
 Hg        18.4952785623       18.4526071138        9.3086170421
 Hg        16.5944724192       21.4877355600        9.7310446779
 Hg        21.5264993400       11.7035816620       12.2342724853
 Hg        14.4778459082       22.6647232940       12.8560711842
 Hg        21.1732730001        9.2917465137       15.4073690638
 Hg        12.4988995545       22.9407542432       16.1618236463
 Hg        18.4561422635        9.9651697862       19.3685973496
 Hg        11.5077417256       21.2019128155       20.2115272305
 Hg        16.5435170622       10.8984664326       22.2708268797
 Hg        14.4266931422       14.1787413387       22.9194482756
 Hg        12.4699253665       17.5029999557       22.6106265863
 Hg        22.4079394016       17.6579525413       12.0583370155
 Hg        21.2266354204       21.3995587482       13.1990835745
 Hg        22.7874152618       15.0734570013       15.0903337528
 Hg        20.8252576406       18.6136849661       15.5509328967
 Hg        18.1113473198       21.7634225088       15.6879542256
 Hg        22.3821639105       12.5229611587       18.1480670883
 Hg        20.8159349235       16.1358922489       18.4890665847
 Hg        18.9615433471       19.8235011216       19.0759165679
 Hg        16.0634604393       22.4671374389       18.7636958696
 Hg        21.1924461839       14.2814554948       21.6389693677
 Hg        18.0863118960       16.8098987897       21.5495744512
 Hg        16.0520055699       19.9726747779       21.7178344709
 Se        13.8852344187       11.5593417490       12.0874804654
 Se        11.3305432902       15.6642454417       12.3242411558
 Se        11.3202482491       12.4951454001       16.0846513628
 Se        17.4006146909       14.0029558684       11.2616049983
 Se        15.0489011569       17.8935834295       11.5004295466
 Se        17.3886170032       11.1463000877       14.6469361897
 Se        15.0163682309       14.9752968560       14.9659949107
 Se        12.5161724741       18.8211236993       14.9931672555
 Se        15.0284532593       12.0462124907       18.4249979834
 Se        12.5035147149       15.6462374223       18.7493662257
 Se        18.7001025333       17.4590190475       14.1826506530
 Se        18.6868267938       14.6044923880       17.5672174628
 Se        16.4250972466       18.3208839437       17.8058047804
 Se        12.6393261224        8.2173155007        9.2585738975
 Se        10.1073812651       12.1600306515       10.0218419084
 Se         7.6068641861       16.1190499139        9.6885828042
 Se        10.1017293642        9.6477462648       13.0010794936
 Se         7.9581995251       13.0607890311       13.3352855960
 Se         7.5710578659        9.9938121319       16.9532273778
 Se        16.3541303976       10.6520447347        8.3038219063
 Se        13.6689658661       14.6690948180        8.9827833092
 Se        11.2277747124       18.6521583517        8.8206641128
 Se        16.3406728574        7.6728207309       11.8354700445
 Se         8.5584279586       19.5077300375       12.4738630089
 Se        13.6418807941        9.0184796275       15.6766499758
 Se         9.2313234761       16.2538723582       16.0256439650
 Se        11.1805512577        9.5610511505       19.6093722601
 Se         8.5262399082       13.3115825570       19.8207073311
 Se        20.2780318483       12.6433629812        7.6940330767
 Se        17.3894074841       16.8130431030        7.7380637112
 Se        14.7289973316       20.9080423615        8.0791934549
 Se        19.9689294005       10.1103371057       10.8834399293
 Se        12.4199262599       21.8247653993       11.5013939533
 Se        20.2543326752        7.3933166353       13.9177472988
 Se        10.0759083327       22.6956804084       15.2469633146
 Se        17.3487182071        8.1442009711       18.0129433954
 Se        10.3628879466       19.4713877557       18.7465250146
 Se        14.6662323410        9.1868481848       21.9713042151
 Se        12.3687550992       12.7205193786       22.2806301436
 Se        10.0436800805       16.5694814188       22.5093835912
 Se        20.6972698884       16.7146768942       10.3858466023
 Se        18.7585312229       20.4592091240       10.8191675687
 Se        20.8450302037       13.6781783766       13.9026435952
 Se        16.0468545679       20.9927822861       14.3351781501
 Se        20.6710432597       10.7217776108       17.4849577781
 Se        13.6890661000       21.6853353893       18.0796101021
 Se        18.7175818042       11.7923026216       21.0925974795
 Se        16.0195636535       15.3489342437       21.0261633579
 Se        13.6778743369       19.1726282099       21.0537359981
 Se        22.9132188491       19.6495166580       13.6208223585
 Se        22.5837932672       17.0623823915       16.7622547683
 Se        20.1833725919       20.8375842980       16.9145735258
 Se        22.8846602043       14.3993448081       19.8478038864
 Se        20.1681881415       17.8580700678       20.4464142461
 Se        17.6942225593       21.6657061435       20.6234736638
 Cl        11.9645704183       22.9678871547       21.7002212867
 Cl        16.2071579795       23.6662613122       11.1209260955
 Cl        10.3106683892       14.9978153885        6.5864366764
 Cl        16.1463522924       12.6296275426       24.1936420112
 Cl         6.8918725834        9.4519012193       10.2763002260
 Cl        24.1553486309       13.1450305089       16.3437408663
 Cl         6.9294892480       17.1619218598       19.4107685187
 Cl        17.3333312036       23.9341096798       17.0532438783
 Cl        13.7663016814        6.2944521078       18.8333604135
 Cl        17.3131970951       18.5299913465       23.4549297155
 Cl        13.8766268518       24.5116556822       14.6341166848
 Cl        12.6376607609       11.4370716584        6.4948962102
 Cl        10.2646032924        6.7424967355       16.3690856716
 Cl         5.7492576724       14.0332645851       16.7637977547
 Cl        19.6142281404       14.6125572474       23.3542887987
 Cl        23.0410499833       10.1705511514       13.8203631072
 Cl        16.2019649246        5.4942393642       15.6516399009
 Cl        23.0509530751       13.0050260536       10.4653695009
 Cl        19.6540162981       23.1520229849       13.2350963260
 Cl         5.7793433958       16.6224104529       13.6836917421
 Cl        12.6232923853        6.0312068280       12.8913163278
 Cl        13.8276716680       17.3289688939        5.7547689130
 Cl        16.2343823794       14.0420582591        5.5197718591
 Cl        24.1667523803       15.9727246469       12.9807573333
 Cl        13.8370927943       16.2554004200       24.4222425356
 Cl         6.9508209574       19.7506008183       16.3319686585
