     691
 i =      159, E =    -17480.1294253104
 Hg        20.0407030791       26.0505018430       19.9527283562
 Hg        23.0414035035       28.9742664423       19.9876747660
 Hg        26.1837205720       31.5177639532       20.0678568023
 Hg        28.3767371870       34.8457978320       19.8332117207
 Hg        35.2371676936       22.6818084122       30.2575408410
 Hg         9.1578929390       13.6190874494       20.7923172285
 Hg        10.7321625036       17.2646212227       19.7435793698
 Hg        14.0598065165       20.1098825017       19.9595009317
 Hg        17.0502162213       23.0356114819       19.9074448117
 Hg        23.0508505671       26.0269858198       23.0299141718
 Hg        26.0506495314       29.0401296692       23.0715165321
 Hg        29.1710259218       31.7473860417       22.9656892477
 Hg        31.8191738391       33.9342415036       21.4570742770
 Hg        23.4045261888       28.3442805774        8.3026256237
 Hg        16.9748258919       13.9409700281       17.1968459557
 Hg        11.4515809106       13.8007810046       23.2236722893
 Hg        13.9469710929       17.0173561495       22.7736242990
 Hg        17.0212385546       20.0324802008       22.9813843452
 Hg        20.0442356975       22.9908994983       22.9607111429
 Hg        26.2138399981       26.0697096337       26.0326265952
 Hg        29.3109277151       28.8622419058       26.0966682782
 Hg        20.0181327900       16.9514059375       16.8824800949
 Hg        14.1697182535       19.9563445647       13.9335866985
 Hg        14.2820919920       13.7777780062       26.1771163903
 Hg        17.0528303536       17.0156390734       25.8630418896
 Hg        20.0439041040       20.0475117754       25.9454364919
 Hg        23.1217794193       23.0003134910       25.9711961521
 Hg        28.9297420983       26.2529224052       29.0634352614
 Hg        31.1854411907       28.9589189880       29.2388534141
 Hg        14.1836714835       33.5796179515       23.0737625323
 Hg        35.0687427601       25.7479377234       27.7855959280
 Hg        23.0240834223       14.1159569313       22.8699664130
 Hg        14.1094919554       10.7331067830       28.7925045076
 Hg        16.7631538280       13.9737108150       29.1217244103
 Hg        20.0737885298       17.0414348090       28.9026346067
 Hg        23.0736869294       19.9660474572       28.9200267751
 Hg        26.0936481903       23.0413118719       28.9583247767
 Hg        29.1278104519       13.7769141411       16.7849126957
 Hg        26.1309607393       17.0423136480       22.8245091951
 Hg        31.9719497744       19.9155240058       25.9722270125
 Hg        26.0672445102       19.9629562343       19.8798949129
 Hg        22.8537291315        8.3262520326       17.1346387888
 Hg        26.0834682261       11.1997583956       16.9790455854
 Hg        20.0828763976       14.0270639423       31.8241656246
 Hg        23.1907667435       16.8039978457       31.7678125518
 Hg        26.1419378944       19.9248718095       31.8064432464
 Hg        29.2194967994       23.0690359466       31.5042641096
 Hg        23.1713868350       24.0156250110        7.7256944454
 Hg        34.1946204248       28.9193214831       25.6304162895
 Hg        23.0323564530       14.1792592764       35.0866500620
 Hg        26.2512138551       17.0542886576       34.7459581554
 Hg        28.4842301627       19.4529473522       34.6846259779
 Hg        30.3313349500       22.7327613874       35.1135747623
 Hg        23.2713367164       11.1309218686       13.7273290935
 Hg        22.8305023839       20.0748101427       11.0325497928
 Hg        14.0503307819       11.2357371268       23.0531503351
 Hg        28.7850969928       23.0306487000        8.1133135977
 Hg        31.4274136562       28.4699981764       16.5993839026
 Hg        16.8106834326       19.8989289439       11.1761345374
 Hg        26.1602429503       14.0391413814       13.7490799227
 Hg        20.1588098657       22.8782122972       10.9905654765
 Hg        14.1755681012       13.9566192881       14.2768108812
 Hg        23.0788368809       16.9877038565       19.8925917375
 Hg        26.3363091513       17.1236172052       10.6673984614
 Hg        25.9621922024       16.9507220060       28.9826043527
 Hg        32.1051841917       23.1086686059       17.3066688157
 Hg        17.0697119143       10.7018340942       26.1038525739
 Hg        31.7759032385       13.9427136398       19.8306659602
 Hg        34.8518008623       17.5583862509       19.8924576184
 Hg        20.0650162716       19.9853268367       19.9475160400
 Hg        17.1714038312        8.1327991279       16.7800610915
 Hg        14.0477667755        7.6011998789       24.0209917332
 Hg        16.9350115657       17.0794405965       13.9581193199
 Hg        19.3702585755       14.5095529945        8.3502906124
 Hg        11.3198558213       14.1929505884       17.1480530483
 Hg        17.0822911458       16.9997138862       20.0065883677
 Hg        28.8473803395       23.0987472898       13.9058609853
 Hg        29.0051868254       29.0483252631       19.9105036385
 Hg        32.3508964002       16.9395172217       16.8275030090
 Hg        29.0589519914       20.0235068400       22.9195334622
 Hg        20.1263935975       13.8196040698       13.9140791471
 Hg        28.9230967913       20.1496927737       10.9753033707
 Hg        17.2851991936       22.6966645002        8.3075961118
 Hg        13.4770791309       29.2948878096       11.0616057251
 Hg        20.2736056525       35.2388067994       12.8514575461
 Hg        14.0645290192       17.0355801832       17.1684693768
 Hg        22.8213810249       29.0506969939       13.8268693781
 Hg        26.1034017918       31.6899381364       13.8778069750
 Hg        23.0384776111       23.0496104157       19.9528935903
 Hg        13.7293941450       26.1744433357       13.8528647897
 Hg        16.7228939440       29.1127514381       13.7727935583
 Hg        19.9136588583       31.6004661506       13.7784384223
 Hg        23.6092057228       34.6709735914       14.5093007833
 Hg         9.5563092776       19.3330737202       13.7934058085
 Hg         9.3433606592       22.7982097483       13.7170362551
 Hg        17.0158823723       26.1093503361       16.9937072643
 Hg        19.9279721363       29.0970758819       16.9718286311
 Hg        23.1067173793       31.8260134284       16.9259061769
 Hg        26.1849858099       34.3604218835       16.5184963821
 Hg        34.8767325214       23.0540410604       19.8769389602
 Hg        11.0949847584       20.0167835039       17.1523090547
 Hg        13.9323663699       23.2891654707       16.7107597009
 Hg        20.1197596424       29.0156552762       23.0591929627
 Hg        22.8020861794       32.0635427955       22.9859704508
 Hg        25.4332960508       34.8479920241       22.5392532069
 Hg        34.7706384949       22.6855139855       25.7176317248
 Hg         7.9113239799       17.2562591021       22.6098549260
 Hg        11.0754389279       20.0002999614       22.9444374831
 Hg        14.0286897862       23.0218256277       22.9554601986
 Hg        17.0532132802       25.9596909750       22.9354685113
 Hg        23.2693224221       29.0574698701       26.1406435670
 Hg        26.3144581151       31.9391337343       26.1751470105
 Hg        29.2409643126       35.3797174763       23.6408477198
 Hg        29.0961224219       23.0219907999       25.9587772599
 Hg        10.1983539361       10.7572680023       18.9934813373
 Hg         8.3628908620       14.3907436919       24.8078545827
 Hg        11.0773308531       16.9086220449       25.7567592389
 Hg        14.0236401102       19.9222668366       25.9543889749
 Hg        16.9766049703       22.9863396248       26.0444105555
 Hg        20.0934799742       25.9666904694       25.9914155543
 Hg        25.8485213018       29.5169594666       29.1269920941
 Hg        28.9303017918       31.4919472456       28.7212066816
 Hg        26.0696329801       17.0024485161       16.9485360702
 Hg        19.6245531454       11.0717569639       29.2477684080
 Hg        12.0862258600       13.7309272935       28.7778925204
 Hg        13.8921007919       16.7194747548       29.1596155978
 Hg        16.9863168194       19.8936384299       28.9565497447
 Hg        20.0686255090       22.9828720322       28.9376975227
 Hg        23.0830444056       25.9926573433       28.9551925709
 Hg        29.0155560555       29.0541643024       31.8716349126
 Hg        26.2999590929       13.9339014062       19.7597928693
 Hg        31.6243158038       26.1378234131       13.9447640276
 Hg        14.0539454805       13.0661661232       31.9368126936
 Hg        17.1133070941       16.7833751171       32.0239148232
 Hg        20.1548526989       20.0443549714       31.8724478938
 Hg        23.0594364272       22.9661935804       31.8393020622
 Hg        26.0741881009       26.3986224239       32.0734471224
 Hg        31.9102343692       25.9557590824       25.8275179543
 Hg        23.1649903419        8.2067620564       22.9479858877
 Hg        25.5636196434       10.9405509914       22.7540226053
 Hg        18.2833744607       14.3866708018       35.1096575194
 Hg        20.3195302651       17.4066333085       34.7257223034
 Hg        23.2612455115       20.0436504331       34.7438687991
 Hg        26.1914164953       22.8608311085       34.6894584810
 Hg        29.1512635221       25.9534645901       33.8581297966
 Hg         8.7522135478       31.3955576507       20.8090895471
 Hg         8.0704248550       29.0612825995       23.0394355721
 Hg        11.1941418364       31.7318388203       23.2693531117
 Hg        29.0216977595       16.8206830199       13.8899616166
 Hg        31.9672223894       19.5256288692       13.6542129817
 Hg        25.9398913138       19.9622361369       13.9090909632
 Hg        26.2211611205       11.4387108026       28.9384350829
 Hg        24.8760099114       20.1041719521        7.8383735708
 Hg        17.1253572779       14.0297258018       22.9838765727
 Hg        33.5508887347       23.1272187589       13.9717973173
 Hg        26.0753023592       26.3285535729        8.3044122778
 Hg        31.9451905082       16.8076585146       28.9505059896
 Hg        35.2859317013       26.0827281858       22.8569644951
 Hg        33.1657849307       31.9423267260       18.6302892576
 Hg        22.6638721562       16.8374797308        8.1339013929
 Hg        26.2389148883        7.8102877113       19.9956310350
 Hg        30.1654608667       10.7049204983       20.0795194719
 Hg        35.1430588419       14.8503325990       22.7779767985
 Hg        29.2508401948       20.1575173692       28.9683434563
 Hg        28.9679169231       14.2691219875       28.8775232379
 Hg        29.1314627719       14.1058329694       22.9379583743
 Hg        34.8495489100       17.0845317134       26.1133429969
 Hg        26.2307325996       22.9327579472       11.1736649631
 Hg        28.9278707938       22.9770294773       20.0206411282
 Hg        31.6424969561       23.2728365022       11.0066932814
 Hg        17.3547758342        8.7893810844       29.0925060415
 Hg        32.1401702007       25.4965177944       20.1406271312
 Hg        35.4720909037       20.3581731901       16.5086036942
 Hg        11.0664652810       29.3884146739       14.2138654851
 Hg        13.9509691671       31.3455583666       14.2363787238
 Hg        16.9874657205       33.8374220237       13.8422888863
 Hg        32.0243654135       19.9840289667       19.8333033310
 Hg        22.9829558105       19.9887924140       16.9413667274
 Hg         9.3370281309       26.1686302898       13.6247153316
 Hg        13.9343267487       28.9812334489       16.7603138112
 Hg        16.6074815590       32.0750599488       16.7933476165
 Hg        20.0499413828       34.7214484568       16.8337295164
 Hg        28.5493522050       11.6286423192       26.2506503976
 Hg         7.6244025337       23.5438300383       17.4016091759
 Hg        11.0785050740       26.2597891112       16.6959387397
 Hg        17.0964672243       29.1300600991       20.1425426237
 Hg        20.2562071147       32.1234579156       20.0554522837
 Hg        23.4030375622       35.2855667886       18.7929607262
 Hg         8.3259328658       20.1361338119       19.8585773108
 Hg        11.0557582578       22.9811349135       19.9525600075
 Hg        14.0585843639       25.9893599421       19.9365561774
 Hg        19.8732355344       31.9652327783       25.9124786581
 Hg        23.5982160027       35.3746386940       25.6661767644
 Hg        32.1058964645       22.9629961132       22.9744234246
 Hg         8.3274658387       20.1354819903       25.8801241003
 Hg        11.1392672962       23.0381350940       25.9848142111
 Hg        14.0054568891       26.0241817345       25.8530566860
 Hg        17.0865093050       28.9162356729       25.8754949936
 Hg        22.6693736378       33.8039190534       29.3037048318
 Hg        26.0534767424       33.7089858280       29.3178412768
 Hg        23.0702199143       16.9657844051       13.9256275564
 Hg        20.0482049351       23.0762467996       16.9545488566
 Hg        22.9667168069       25.9732198038       11.0590780593
 Hg         8.7715556071       16.9132202384       28.3120709944
 Hg        11.2996975089       19.7942118575       29.0705893371
 Hg        13.8958006275       22.7924445029       29.0715867663
 Hg        17.1871842053       25.9900693086       29.0859274750
 Hg        20.0682495178       28.7932150094       29.0983551623
 Hg        22.7306671664       12.7112362754        7.8870725375
 Hg        25.9715790226       13.9563508491        9.0442495153
 Hg        13.8826525022       19.8082706492       31.6848068430
 Hg        17.0233360796       22.9484645363       31.8345446601
 Hg        20.0069840139       26.1387617142       31.8368943711
 Hg        22.8798540528       29.0772409386       31.8502373570
 Hg        28.6531148014       18.8173841289        7.4235628794
 Hg        31.2359675230       20.9133976994        8.4919244935
 Hg        23.1662051119       14.1802819975       28.9678638194
 Hg        14.1498741820       16.6288766132       33.8301581302
 Hg        17.0435587662       20.0273346207       34.8407230697
 Hg        19.7897161416       22.9249617060       34.7891700513
 Hg        22.9452604917       25.3230513173       34.8532781296
 Hg        24.2660214597       28.8324326872       35.4068986338
 Hg        14.9806539999        7.7400246635       20.1742065808
 Hg        20.0537154215       19.9740747047        8.3266940582
 Hg        19.8700115257       26.0937049808       13.9342033890
 Hg        22.9964907185       26.1220439674       16.9045568747
 Hg        19.5389102209        8.1755047682       14.6022918754
 Hg        26.0113833025       26.0664695484       20.0465493689
 Hg        16.9371413899       11.1682811134       19.9229335656
 Hg        29.1175779244       26.2338627768       23.0889978384
 Hg        11.5606677782       16.5832063231       14.1958945280
 Hg        20.0723101656        8.1334335090       19.8323169581
 Hg        29.2112678326       14.3240651849       10.8798575807
 Hg        25.9448830782       14.0559091219       25.8067532196
 Hg        25.9693936511       22.9671578957       16.9649669745
 Hg        29.1698069674       16.8971592934       25.7592940474
 Hg        20.4521800777        7.5527393250       26.2893534001
 Hg        19.9889711574       11.0763559542       16.9132134830
 Hg        20.0316368669       17.0209582657       22.9885266539
 Hg        19.7282261105       25.9452937734        8.0297838910
 Hg        34.8522661183       19.4518497770       28.2854605288
 Hg        26.1527542794       29.0478659276       17.0961067819
 Hg        23.3342530801       11.3721459303       31.9650017154
 Hg        22.7616219118        7.8176006876       12.5975261985
 Hg        29.2075647582       12.1855590656       13.5380511081
 Hg        31.7542661070       14.5645580913       14.0220961084
 Hg        34.2773809710       17.3341678794       13.8126995836
 Hg        34.9186206771       19.9421556650       23.0248896997
 Hg        29.0523091885       16.8994149377       31.7846663170
 Hg        14.2134811878       35.5423723644       19.1651258402
 Hg        28.9660517332       25.8629828917       17.0454801913
 Hg        29.1131357464       20.0756601124       16.7693684826
 Hg        23.0601875066       13.8823228247       11.4377606817
 Hg        32.3915287903       30.0870927676       22.7463472154
 Hg        23.1610949918       10.9127197011       25.6176802032
 Hg         7.7329677750       28.9123718015       18.5698220306
 Hg        14.0449646707       32.1428654572       19.4899866675
 Hg        18.1420395211       35.2835394604       20.1061633982
 Hg        23.0952889266       20.0465586720       22.9382693807
 Hg        23.0671674029       14.0235798352       16.9165291240
 Hg        28.6765178943        9.2787926934       23.1875426540
 Hg        32.0563982127        9.9233495857       24.1989678150
 Hg        16.7760019425       13.9939572454       11.2128249235
 Hg         8.4586868041       25.8227939541       20.3485667563
 Hg        11.2724350242       29.0868304826       19.9981439795
 Hg        17.3639880636       32.2327322491       23.0018779918
 Hg        20.2064507986       34.5458364724       23.2142431250
 Hg        13.7650708367       23.0055293053       11.3383502307
 Hg         8.1107574195       23.0918933547       23.2080139865
 Hg        11.3271040911       26.1682458381       23.0971172322
 Hg        14.0248772935       28.8708973643       23.0407124391
 Hg        19.2356655451       33.4722921001       29.3067670940
 Hg        25.8478366115        8.1638874765       14.9131640952
 Hg        35.3987286510       13.7671815454       19.0593405754
 Hg        16.6568182205       25.9829483069       10.9045615058
 Hg         8.1932001126       23.5210395196       28.2618070459
 Hg        11.1472189983       26.0512275364       28.9728125855
 Hg        14.0352178702       28.6304850244       28.8623414740
 Hg        16.6224125277       31.3171031326       28.9008347015
 Hg        31.9294068667       23.3318108884       29.1579335561
 Hg        23.2120418988        9.5178987141       28.9472637756
 Hg         7.7288469092       20.0696717422       29.9493908745
 Hg        14.0287379897       26.0130951479       31.8338899390
 Hg        19.5105477861       31.2567355449       32.0050872675
 Hg        17.7036337276        8.2127253888       22.9758598641
 Hg        11.7866826234       22.0876700782        8.5967140707
 Hg        13.0124437047       19.9025319141       35.2107907369
 Hg        14.6057995368       23.3538657304       34.6856601384
 Hg        16.8101253684       25.8043258560       34.8214381510
 Hg        20.0464084443       28.6047072171       34.9837302820
 Hg        14.2343365950       24.5819415834        7.8426362309
 Hg        19.9442383558       20.0259647896       13.9927188988
 Hg         8.2676167210       26.0284166071       26.1474491674
 Hg        14.1718087429       13.7658577994       20.0637375195
 Hg        28.9829282840        8.9140420521       17.1903364855
 Hg        33.9766620658       11.2729214909       21.3419202910
 Hg        19.9062261757       29.0902771332       11.1395362513
 Hg        14.1539774989       31.5135888899       26.0860519187
 Hg        20.0631241517       11.0439057726       23.0220742699
 Hg        14.2159777222       20.0138780509        7.9099058136
 Hg        26.0565230974       23.0637737978       23.0191629416
 Hg        33.8156337596       28.5667810466       19.6516860062
 Hg        23.0073680000       23.0348116382       14.0040760344
 Hg        28.7640244425       28.8494664463       13.9424095913
 Hg        16.8619990653       11.0932417026       14.0292248567
 Hg        19.9000877712       16.9514925079       11.1411373187
 Hg        11.6398845534       19.5672578851       11.0030067901
 Hg        17.0252119986       22.9910083705       13.9971417559
 Hg        17.0320279783       20.0667254576       16.9874039363
 Hg        20.0735138202       13.9689272675       19.9438022150
 Hg        20.0823590348       13.8858732282       26.1073966976
 Hg        23.0512983738       17.0521602080       25.8956673815
 Hg        26.1590998334       19.9677311579       25.9751989419
 Hg        29.1091258618       17.0085267208       19.7977140524
 Hg        17.0873848869       16.8551630308        8.1590823581
 Hg        16.6752190045       28.9542255237        9.0265416634
 Hg        26.0413906342       25.8280470665       13.8748959152
 Hg        23.0749416298       10.9744956397       19.8703711140
 Hg        31.8031712313       16.8953434048       22.9260956965
 Hg        26.0424592240       28.9683327951       11.0929416502
 Hg        20.0398404618       29.9556132900        7.6015849661
 Hg        11.5788746319        8.8552294633       21.6996573154
 Hg        21.9381609907       31.2179916477       34.4379842559
 Hg        20.8157174891       11.8506491490       34.3971666880
  S        30.7126292230       15.9664929749       12.2447221128
  S        34.3788193066       30.5820815710       23.9640910116
  S        30.4813103524       21.5498642178       12.4915595432
  S        12.4843613839       34.0165363884       19.5384227489
  S        18.4916219927       24.5479468233       15.4895312608
  S        27.4628117146       12.5299941922       24.2685805599
  S        21.5023001419       21.5133796456       15.4663193338
  S        10.2457347673       17.6581521474       12.2481811144
  S        15.5106216894       18.4692272682       24.3875249655
  S        30.6402937203       15.5213279152       18.2660678820
  S        24.5169724218       12.6558349282       21.2906253336
  S        30.4223882154       24.4319693066       21.5838318586
  S        18.5190208293       21.5408194323       24.4806556243
  S        19.1715955317        9.0878296867       30.5874379847
  S        18.9090969926        9.4450250736       24.7072627923
  S        15.4508987035       21.4755957637        9.6046683209
  S        18.5570684623       18.5364868686       21.4898825876
  S        21.5561666948       12.4989572256       18.4104508628
  S        24.5637874422       30.3369116282       15.3979969807
  S        12.6025498248       33.2020103583       24.8403439473
  S        30.7806146134       12.4663795122       21.6458932116
  S        21.5786171866       24.4680682182       24.4775176821
  S        18.5263871534       30.3662136951       27.5013470648
  S        14.2658447830       25.8109293834       34.2896671246
  S        24.5491856054       27.5320615058       18.4628518668
  S        12.3442342408        9.2710933284       23.9585404726
  S        30.5140902975       18.4144042831       27.4518492637
  S        30.5676855535       21.4742121489       24.4514618970
  S        15.6622551767       27.3759550378       27.4049912167
  S         9.3274384529       12.9076198171       18.3968142914
  S        27.3232323817       21.4508652190        9.3929394740
  S        24.6576425244        9.5203718099       18.4468284754
  S        18.5866374063       21.5336314493       18.4614591724
  S        18.7053093088       30.5838029212       21.5263600507
  S        18.6304168060       15.4570666100       24.5133480479
  S        12.3771977683       21.3299642642       12.6315927666
  S        30.5472576993       18.5257941087       21.3770956233
  S        15.5758417902       15.5572524756       15.6479478281
  S        27.5441374328       15.4625913579       15.4480741181
  S        18.4822230418        9.5504312244       18.4484887799
  S        27.7215803302       30.6212300716       18.3187257428
  S        27.4984876872       27.7015763510       27.5310185693
  S        12.6061339872       18.4699088708       15.5719214974
  S        30.4310950352       18.7153660312        9.0430135844
  S        15.2917986905       12.4631081627       12.5909830463
  S        18.5103594830       27.5873054396       18.5259289999
  S        21.6229201475       12.5798439226       24.4277241538
  S        24.6089693124       15.4660908314       18.4449989300
  S        21.5552355643       30.5127513940       18.4891785090
  S        24.6725231056       24.4884016148       33.3185544288
  S        21.5648464558        9.5120189026       21.4488210800
  S        27.6135005634       24.5659933675       24.4511804760
  S        15.5632768366       27.5082152452       21.4649580172
  S        15.7623322276       12.3546837287       24.5037790935
  S        21.6507789516       12.5407009796       30.3990999287
  S        24.8019647344       33.3008929814       18.3521137865
  S        27.5349057990       18.5267969219       12.4333855901
  S        27.6129576339       27.7658682540       33.6127621047
  S        12.5267680888       18.3688606660       27.3814725832
  S         9.3368604758       18.3359228741       30.2447849356
  S        24.5364302182       24.5226921825       21.4986903243
  S        23.1936587046       11.4502305440       34.4147427428
  S        27.4763549873       30.7191948641       30.5973183719
  S        15.5049129558       27.5057761309       15.4284089386
  S         9.5271193283       18.4973025041       24.3726375466
  S        33.8144217292       15.4784250779       15.2949002248
  S        24.8165984235       15.3101366250       30.5381421355
  S        24.6681732408       24.5918041258        9.5861696200
  S        15.9587069188       15.1226106232       33.5198234888
  S        27.4704965995       21.4710699781       21.4898442877
  S        24.5472564127       12.5398811226       27.3629828361
  S        12.4527125591       18.3125107207       33.4969828345
  S        27.7375390203       21.4099704284       33.2956024319
  S        18.3444412341       27.5054855993       12.4031315777
  S        24.5930933501       18.4899947280       27.4213269430
  S        18.4801379203       21.4978581157       12.4540870170
  S         9.3657106587       30.6532861202       18.6020519432
  S        15.8482703329       33.5690523076       21.3965737534
  S        21.5417844567       15.4651075893       15.4004645440
  S        30.5000432853       24.4574802666       15.4989217798
  S         9.6167774957       24.6362380427       18.4764007984
  S        21.6585678466       21.6114438350        9.3769533462
  S        19.5385817204       31.2684909928       34.4963397422
  S        15.4887037647       21.4246573952       33.3382614530
  S        29.9623996260        9.2938681999       25.2013095499
  S        18.4247408126       30.5918576810       15.5165969269
  S        24.3562997301       18.4316068197        9.4981303883
  S         9.5374873446       21.6142086211       21.5200745975
  S        12.5224033384       12.3138336335       21.3672399696
  S        12.3327753988       21.4901067433       30.6158358233
  S         9.4287647276       24.4428249997       12.0078237196
  S        33.5979733593       24.5188972130       24.3968844575
  S        30.8612015331       30.5520338416       27.4408591909
  S        12.7979610936       15.4369681730       24.4988481956
  S        30.8650512844       24.3269769740       33.4234704440
  S        12.6276200228       24.4938159365       27.5070379711
  S         9.8387691942       15.9112640148       21.6782756656
  S        12.5194496045       18.5841390898       21.3448122636
  S        21.6536938657       33.3741948809       15.3689059776
  S        27.4309641935       24.4692358959       18.5281835615
  S        15.5716208336       21.5722247634       21.4616391390
  S        12.5197623528       27.5067123271       18.4662049494
  S        12.6031504461       15.6056292725       18.7468581454
  S        34.2634144576       10.3190641705       23.4960676735
  S        12.5579695524       21.5070613699       24.4616810100
  S        18.5737188468       24.5016080021       21.4343236451
  S        33.4973068957       27.5384248147       27.4829861156
  S        24.5511935704       15.6042226587       24.3338675743
  S        18.4647715918       15.4115420779       12.6236083726
  S        27.6650186572       24.6888395133       12.3037421043
  S        27.4361322777       33.3556334641       21.5069182008
  S         9.6623572404       27.6328319385       21.6159928646
  S        21.4583480760       24.5227068007       12.5400285091
  S        31.3691290764       28.6392096396       14.1486472876
  S        24.8096066076        9.3594052138       24.5200856505
  S        34.0036707937       19.1948753042       12.3614984113
  S         9.4401501050       27.8026668256       15.3833448397
  S        24.3518562902       33.6860232356       30.9647734575
  S        15.5865560451       30.9224651268       12.5125808424
  S        17.6165935187       32.6908907951       30.8655144359
  S        15.5580273538       30.4757012673       18.4975948673
  S        21.5317085555        9.6723028145       27.2899774180
  S        33.5693227233       21.4600597508       21.3968301977
  S        12.6669331659       30.5551567678       21.5368073499
  S        15.5665595480        9.1298696060       27.4934335655
  S        18.4648775438       33.7297312102       24.7631854551
  S        30.5467960102       18.4545650986       15.4134571140
  S         8.6955742246       25.9555323083       28.7117750257
  S        24.4628403204       30.4903506432       21.5834798322
  S        15.5569205317       24.4928864623       24.4663026292
  S        21.5894781744       21.5390259412       33.4404805397
  S        27.4314250435        9.7401008453       21.2282441385
  S        18.6148144294       27.4284976275       24.4301452933
  S        12.1389488119       15.4760808113       30.3785118129
  S        24.4210433021       30.8302290060       27.4922798905
  S        15.5631710191       18.3259537127       30.4655273701