     282
 i =       53, E =    -10308.2681884339
 Ga        24.7541671545       22.1167054677       13.4675540301
 Ga        22.1858004779       13.7009069705       13.6887771747
 Ga        16.6022884106       24.8291956020       19.3741878501
 Ga        16.7438546494        8.2297608770       13.6031008081
 Ga        19.2261965061       16.4196038343        8.0950268681
 Ga        22.2579186655       13.7021911631       19.3053339369
 Ga        16.4251444231       13.6229401119        8.1557790820
 Ga        19.3234918582       16.4853659796       13.6944275315
 Ga        19.5432592795       16.3369224213       24.9132245903
 Ga        16.6632044702        8.0811641868       19.2242578646
 Ga        19.2444202952       19.2272953276       10.8891705663
 Ga        22.1032323492       16.4179033455       10.8870033656
 Ga        22.1805586558       16.4972512916       16.5644502841
 Ga        22.2102056378       16.4266934892       22.1703215524
 Ga        16.5793309582       13.6952222917       13.6911471464
 Ga        19.3077842922       19.2357495139       16.5041755140
 Ga        19.4675107128       19.2318543397       22.1107590764
 Ga         8.0079148001       11.0553392450       13.6986711235
 Ga        21.9425397964       19.2150429311        8.0980493425
 Ga         7.8344406287       15.6070468480       10.9674515190
 Ga         8.2496090276       13.6278318244       16.6546126443
 Ga        16.5827302556       13.6266334655       19.3011634809
 Ga        22.1033803581       19.2977685367       13.7652676655
 Ga         8.4165425050       16.4889709724       13.9436966649
 Ga         8.2448460487       16.4909537676       19.3920854591
 Ga        22.1927699095       19.2936320481       19.3824599577
 Ga         8.1700203419       19.3851819801       16.5912770823
 Ga         8.3226790890       19.3091510961       22.1046795350
 Ga        19.3919310969       16.4917790678       19.3132811748
 Ga         8.2579726139       22.2676180089       19.3877535567
 Ga        22.4370821444        8.3224131499       19.3008582982
 Ga        22.0962668635       22.0158928910       11.0468716752
 Ga        16.6596952974       24.6793189968       13.8570332461
 Ga        19.2195234070       22.0187178442        8.1664075871
 Ga        19.3795180024       22.0229426225       13.7070476698
 Ga        16.4191226739       22.1035206533       10.8951367557
 Ga        19.3849010433       22.1071050790       19.3140606245
 Ga        21.8677873848       21.7794315544       16.2447911196
 Ga        16.5687876713       22.1039945724       16.5008261469
 Ga        16.6614530806       13.5310987263       24.8439472488
 Ga        16.5139525620       21.8711092965       22.0257229409
 Ga        22.2692292258       24.6667405092       13.4577542860
 Ga        19.5502578749        8.1737514484       16.4169368905
 Ga        19.3070484951        8.0163939361       21.9470278243
 Ga        22.4213271747       13.4574679500       24.7492526910
 Ga        11.4746536780        7.5054388088       14.5125073524
 Ga        18.5666811377       25.4169629574       11.3928588644
 Ga        11.1489876964       10.8815146553       10.8935654111
 Ga        10.9683560215       10.8156519160       16.5874046923
 Ga        24.9868099072       10.8053557718       19.3916233518
 Ga        10.9775146181       13.6898562351        8.1767715017
 Ga        10.9653639466       13.5381387690       13.8485299040
 Ga        10.9805551094       13.6201709040       19.3814987096
 Ga        22.2712350436       10.9639713356       16.4897328269
 Ga        10.9838070704       16.4188153200       11.0722203815
 Ga        10.9738572210       16.4895873914       16.5799777045
 Ga        10.9779071878       16.4065903171       22.1889391136
 Ga        16.5950257776       16.4187479926       22.0960037040
 Ga        10.9021027530       19.3743274091       13.7021943291
 Ga        10.9653534077       19.2965813107       19.2888634288
 Ga        11.6161383709       18.3053290261       25.8186729875
 Ga        10.9011751719       22.1113775090       16.5021691319
 Ga        10.8813955985       22.1986526073       21.6996307258
 Ga        10.8072753162       24.7602401740       19.3171972560
 Ga        19.4636479592       13.6789229835       22.0986326706
 Ga        16.4203036926       19.3070445821        8.1532901016
 Ga        19.4628989381       24.7585236894       16.5927318109
 Ga        25.0022388029       13.6900633538       16.5829499810
 Ga        19.4663278295       10.9656102012       13.6272748537
 Ga        24.9196852069       13.5385606746       22.2670408474
 Ga        16.4937955935       19.3037258656       13.6928996670
 Ga        16.4965722582       16.4897537404       10.8892105646
 Ga        19.4720715880       10.8881317167       19.2276885189
 Ga        13.6252813387        8.1717181600       10.8963425121
 Ga        13.9425161683        8.3100335196       16.3406918872
 Ga        24.7503089210       16.5874639452       13.8556326081
 Ga        13.6065720830       10.6489835888        8.3427202976
 Ga        13.8547545335       10.8964699404       13.6152760104
 Ga        13.7753910496       10.8144240350       19.3006059155
 Ga        24.9234193775       16.4962134482       19.4649143262
 Ga        13.7718694566       13.6963923380       10.9019403166
 Ga        13.7653711697       13.6301168121       16.5161377950
 Ga        13.7708720144       13.5452672201       22.1051020894
 Ga        19.3060809229       10.8080846478       24.8251739454
 Ga        13.6270095854       16.5683668940        8.1664162245
 Ga        13.6983868311       16.4957445445       13.6964725212
 Ga        13.7723260480       16.4302100469       19.3784070372
 Ga        13.9373033458       16.4251180590       24.6723762489
 Ga        13.6871924056       19.3198788350       10.8920378314
 Ga        13.7041072812       19.3022360287       16.4951950795
 Ga        13.6308879621       19.2837108105       22.1228235478
 Ga        13.6938183349       22.1174963897       13.6955567426
 Ga        13.7766329045       22.0997932603       19.2230902443
 Ga        15.8460590572       22.1011183623       25.2303000603
 Ga        16.5747473516       10.8932884994       10.8835250641
 Ga        13.7000753859       24.9095024229       16.5737429683
 Ga        13.7659977706       24.7545822882       22.0357396465
 Ga        16.5085146972       16.4868504397       16.5021893612
 Ga        22.5329958699       11.0564426856       21.8591237192
 Ga        16.5797848560       10.8006849686       22.0413501655
 Ga        16.6677670826       19.0679060283       24.5907918660
 Ga        25.4875748854       18.4849143271       11.3900209840
 Ga        24.8459286695       19.3209125151       16.6643009550
 Ga        19.3140356325       13.6936502293       10.8816618215
 Ga        16.5711690374       19.2975859087       19.3148897174
 Ga        16.6571123266       10.8869058975       16.4310902212
 Ga        19.3954192379       13.6973546838       16.4907667026
 As        17.9260252950       23.3656323432       12.3515335837
 As        18.0016708292       12.2834123942       17.8812698280
 As        20.8833096139       14.9486959162       23.5467920112
 As        18.0317712717       12.2083460913       23.4120271789
 As        15.0943866252       23.5126267484       15.1709235903
 As        17.9613280588       23.4652141987       17.9254926201
 As        17.9343544659       20.6759464151       15.0972835936
 As        15.1836995405       23.4036489022       20.7050546134
 As        23.5802474832       20.6820430136       15.0702143940
 As        23.6068088657       15.0276571207       20.7931677789
 As        20.7860549505       23.4848970552       15.0267620553
 As        17.8425594913       15.0729106092        9.4915025030
 As        20.6410172075       17.8393406828        9.4975503095
 As        23.6582247654       23.5395336435       11.8715059893
 As        18.0412247075       20.6423926084       20.6976572547
 As        18.0325993276        9.4845437194       20.6103032283
 As        20.7358705746       17.8636833901       15.1252343519
 As        23.5411248450       17.8721682544       17.9926706383
 As         9.5182586528       12.2000251045       15.1862181755
 As        20.8153844081       17.8455056829       20.7241379742
 As         9.5889345688       15.0660769025       12.4555958979
 As         9.6006837996       15.0883132330       17.9866997587
 As        17.8594126863       20.6769095539        9.5398043446
 As         9.6109751219       17.9997543190       15.2512850663
 As         9.6584094698       17.8967697223       20.7597830939
 As         9.5444109309       20.7508257394       17.9849291109
 As         9.3492842276       23.7512347184       20.8863697840
 As        17.9414017547       15.1066146513       15.1197215786
 As        20.8881353537        9.5249802494       17.8735245589
 As        17.9944796898       15.0455152119       20.6886325947
 As        20.6793661243       20.5919764228       12.2980166359
 As        17.8828341458       17.8780396500       12.3157479801
 As        23.4257908858       17.8732975568       12.3536091046
 As        12.0315699696        9.2444016822        9.4725814875
 As        12.4230593609        9.5969369153       15.0671007462
 As        20.7157108776       20.6286387702       17.9324386352
 As        12.3798447256       12.3274170920       12.3355001076
 As        12.3727342981       12.2520709284       17.9276784270
 As        15.1855318149       20.5821700383       23.5199301572
 As        12.3084536626       15.1014895735        9.5538231860
 As        12.3342386127       15.0779344494       15.1344495002
 As        12.3850838623       15.0366445350       20.7690208765
 As        12.3111646014       17.9458160496       12.3262537440
 As        12.3926682228       17.8763461598       17.9551580984
 As        12.3913363708       17.8416514199       23.5706094790
 As        12.3189999907       20.7284945656       15.1168806317
 As        12.3904617779       20.7029002544       20.6378562348
 As        12.3262913071       23.5034722965       17.9234320644
 As        20.8116780267       12.3366472813       15.1008393937
 As        17.9271147859       17.8615264056       17.9212031851
 As        20.8207405510       12.2913074385       20.6648137505
 As        23.5722905221       15.0647950665       15.1851365572
 As        20.7835019302       15.0858640473       17.9219236210
 As        18.1421884264       17.7012076813       23.4471925974
 As        23.8097865764       11.9494112142       23.6325133033
 As        23.8328028361        9.3529483814       20.8783721911
 As        17.9471971918       12.3104285288       12.2895019420
 As        18.0945334198        9.5496452756       15.0542213055
 As        20.7138386044       15.0918677533       12.3073383344
 As        15.1777776468        9.4659775459       12.2571345201
 As        15.2655969877        9.4932942200       17.8838902221
 As        15.0530796125       12.2304003341        9.5190409516
 As        15.1849592844       12.2870643908       15.0886939334
 As        15.1902103647       12.2188108600       20.6764094661
 As        15.1265965129       15.1052977685       12.3187956867
 As        15.1591445021       15.0622818592       17.9240629774
 As        15.2673587458       14.9282042648       23.4700190816
 As        23.6587022352       12.2966448773       17.9551331884
 As        15.0812198782       17.8992180674        9.5284708055
 As        15.1074691930       17.8969056941       15.1046103791
 As        15.1590850394       17.9057958841       20.7681254485
 As        15.0889421302       20.7029358137       12.3128102433
 As        15.1705002380       20.6795211256       17.8780742048
 Cl        18.5724056457       23.4411186169        6.7947721910
 Cl        20.5327191001       26.0289166862       12.3444899904
 Cl        26.5583961851        9.9444246994       18.2778389981
 Cl        26.6097638171       12.9524430244       15.4450233381
 Cl        26.1506197261       12.3375972575       20.7090328054
 Cl        16.6472930781       26.4315578550       12.3909216358
 Cl        26.4998957528       16.5884733171       12.3700089796
 Cl        26.1082889043       15.1853252071       17.9636945493
 Cl        26.4126634791       14.6739227574       23.2385003675
 Cl        17.5573396035       26.3351440107       20.4821235904
 Cl        26.2590945690       18.5419062374        9.4589244130
 Cl        26.0187557710       17.9350810115       15.2316507233
 Cl        26.4501157391       17.6202159954       20.3608213733
 Cl        17.3010253753       20.6020701836       26.1880675729
 Cl        26.1234003995       20.4570112847       12.3459326311
 Cl        26.3472049988       20.5059986599       17.5219572745
 Cl        26.3058856427       23.1563100605       14.4470505333
 Cl        18.5787107151       26.2269466348        9.4780576967
 Cl        17.9900888480       25.9409464301       15.2506625205
 Cl         6.9272322172        9.4495132500       14.4799337946
 Cl        23.1509616083       20.6904936363        9.4622538354
 Cl         6.9368156291       12.3779499052       12.4370712925
 Cl         6.5880072098       12.6933252919       17.5214133593
 Cl         6.4258945006       14.8163018861        9.6715967228
 Cl         7.1030495368       15.1674438662       15.2189281174
 Cl         6.6700206795       15.5919956805       20.4469618023
 Cl        20.5697574792       26.2706543293       17.5319386242
 Cl         6.8207528895       17.0981416262       12.4275908582
 Cl         7.0657067702       17.9258323541       18.0050665739
 Cl         7.0378720256       18.6498386167       23.6022835913
 Cl         6.5765001816       20.1979851727       15.4925761956
 Cl         7.1287191938       20.7324749173       20.8477264294
 Cl        15.1701615225       26.0100176854       18.0219468174
 Cl         6.5811778299       23.0541955865       18.3874971205
 Cl        14.5366743947       25.9887966630       23.5345679541
 Cl        23.2347410294       26.2575524283       14.4415253031
 Cl        20.4778148493        6.5983551886       15.3997238289
 Cl        20.9298088453        7.0475300385       20.8250573189
 Cl         9.5440417208        6.7376445145       14.5193680513
 Cl         9.4934148556        9.9451126122       12.1678380018
 Cl         9.8056492436       12.3194857397        9.6131091073
 Cl        12.6234632677        9.4534306433       20.4332832739
 Cl         9.5335372258       14.4760109946        6.8901598430
 Cl        18.1024568996        6.9807439651       17.8271370856
 Cl         9.6092472730       18.1070639820       26.3469670065
 Cl        18.5233704359        6.6611378000       23.3162605574
 Cl        12.4508910825       20.4843467114        9.6254566243
 Cl         9.7676105315       20.8084793303       23.1967668833
 Cl        20.7274400401       23.1532484026        9.5285095998
 Cl        10.0423379707       26.4543926239       18.3277531008
 Cl        17.6618104391        6.6415966349       12.5930286179
 Cl        20.2731551158       17.4936570532       26.5072068914
 Cl        20.6776621947       20.7471609255        6.9501843518
 Cl        18.0553669662       14.9445764789       26.0267139383
 Cl        17.8574824968       17.9399767184        6.9778107802
 Cl        20.6317782483        9.5380354345       23.3058286232
 Cl        12.4623244750        6.8107794511       12.6226499639
 Cl        15.6618192054        6.4859591320       20.1604119800
 Cl        17.3870716197       12.7671175280        6.5032736517
 Cl        12.2154914590       12.2195636418        7.0745341593
 Cl        12.4823643887        6.5554648717       16.4437384268
 Cl        12.6062210906       16.1836807628       26.4587886080
 Cl        12.5147218177       17.5339430886        6.6711131483
 Cl        23.3338716334       18.6115643117        6.6761714514
 Cl        23.2021111272        6.6138620876       18.3294315664
 Cl        15.5134552337       20.4046866010        6.6116961027
 Cl        12.6837129174       19.8714092361       26.7517974162
 Cl        20.5825286860       23.4107360222       20.4770693958
 Cl        15.4177332433       23.5104956637        9.6807206953
 Cl        12.3114302395       23.3472594577       23.1742200713
 Cl        12.9189377563       26.5502305812       15.5251157179
 Cl        12.3884440539       25.9444462689       20.7748149506
 Cl        14.9903852111       23.3477673033       26.6434203675
 Cl        20.8730181712       11.9343466747       25.9070823518
 Cl        20.2980315392       15.6174370523        6.4832858203
 Cl        20.5508198619       12.6353615887        9.5338206114
 Cl        18.4929024850        9.4237511208       26.1488877274
 Cl        23.1003292737       14.4387515010       26.4891349125
 Cl        14.5329826105        6.5250550105        9.9489535833
 Cl        15.3682067823        7.0522674955       15.0974779043
 Cl        14.5621092658        9.7649045909        6.6914013705
 Cl        15.6268948060       12.6051242314       26.4221474292
 Cl        14.9862755859       15.1219268454        7.0227983579
 Cl        15.4430416490       17.7189394506       25.9390399457
 Cl        20.4231271820       20.5569107299       23.4646877474
 Cl        23.5613854466       12.6986706067       12.4353537103
 Cl        15.4787912347        9.5321298847       23.3231933759
 Cl        23.5156800705        9.7614808168       15.2710269303
 Cl        20.6497604093        9.7415403067       12.3837253291
 Cl        17.7211046192        9.7076271320        9.5633537821
 Cl        23.4984339794       15.4834559641        9.6052088633
 Cl         9.1622506849       17.1518344964        9.8468770942
 Cl         9.5338642044       20.4323126750       12.4851634191
 Cl        12.5783280417       23.4834895880       12.5276778918
 Cl         9.6429464509       23.3933548515       15.3865893085
 Cl         9.8060693553        9.4251195656       17.6701984911
 Cl         9.6654793977       12.4255600103       20.5210930400
 Cl        12.6006838454       12.4337821755       23.4670089053
 Cl         9.6921555395       15.3000414110       23.4418404622
 Cl        17.2925463867       23.1828463932       23.8141495024
 Cl        23.3371508711       17.7091162553       23.4239792784
 Cl        23.3886083014       20.6822524183       20.4339475185
