     775
 i =      431, E =    -10550.7513624415
 Br        36.3625377210       33.0064151850        9.6057500548
 Br        36.5211895741       33.1933539302       14.8957062431
 Br        36.6200423893       33.3170716255       22.0754133649
 Br        36.4281388826       33.8384175862       27.8099883987
 Br        36.3060997571       33.4330298426       33.1606179836
 Br        21.5897493423       24.4908752542       33.5232321528
 Cs         7.0454993951        7.3207949553       12.5138574073
 Br        21.2449509906       18.4405787453       27.2510552146
 Cs         6.7677632565        7.4705543068       24.6710117699
 Cs         7.3655054014        6.9822511778       30.5692934838
 Br        21.5934775313       24.5214258421       27.4351121914
 Cs         7.1610353041       12.4895968652        7.4201278426
 Cs         7.3429357194       12.7586212081       12.6864008505
 Cs         7.0745884208       11.9037072758       18.5583285547
 Cs         7.2934356315       12.8581254285       24.2810897985
 Cs         7.1888152767       12.1265583943       30.3836451235
 Cs         7.4065685089       12.3462299988       35.7937101066
 Cs         7.3034776834       18.4521490588        7.4347381574
 Cs         7.7433737560       18.4723685615       12.5526635448
 Cs         7.0077239455       18.6754662918       18.0095956103
 Cs         7.4246216308       18.4768587490       24.2313771892
 Cs         6.9055966950       18.5020874179       29.5496299238
 Cs         7.4932725326       18.3346663785       35.7760711776
 Cs         7.3823156054       24.4530410013        7.2358279407
 Cs         7.3762807048       23.9156577319       12.5609683313
 Cs         7.3112365046       25.3102641443       18.5667604846
 Cs         7.2515511294       23.9935182854       24.4686559522
 Cs         7.4541032121       24.9996653850       30.3455384450
 Cs         7.0405540122       24.6379134632       35.5551387481
 Cs         7.1599909397       30.3871248823        7.4476309357
 Cs         7.3507683981       30.6484170995       13.0879388753
 Cs         7.6970800107       30.6692787468       18.5166669357
 Cs         7.1311644138       30.8497753041       24.0274829224
 Cs         7.3678490407       30.3839106670       30.3603083854
 Cs         7.2586238370       30.4991718545       35.6862400048
 Br        33.8067021950       30.5119590919       27.2980143097
 Cs         7.0464222871       35.7223222301       12.4983174507
 Cs         7.1270735640       35.8015741713       18.4911983612
 Br        21.8237948099       18.4365383105       21.3776639824
 Cs         7.1774404790       35.7909011805       30.7280767848
 Br        21.0845935615       30.6393531343        9.7414690212
 Cs        12.3032592083        7.0453510251        7.3799533519
 Cs        12.4064261881        7.2209927332       12.8066523575
 Cs        12.4703249228        7.0532703646       18.4440522425
 Cs        12.0136726974        7.0143303306       24.5047652450
 Cs        12.8738968470        7.1511530779       30.5447485903
 Cs        12.4742212694        7.0970769502       35.7826322597
 Cs        12.5668593629       12.1827093936        7.1991140175
 Cs        12.5776077367       12.4765905750       13.2164707079
 Cs        13.1312404775       12.4434999985       18.7404763535
 Cs        12.5708769600       12.7405554161       24.2014007603
 Cs        13.0248244094       12.3742628913       30.2811162569
 Cs        12.6879136622       12.6340616737       35.6560775274
 Cs        13.4530588572       18.5838288689        6.9074831660
 Cs        12.8903580166       18.4157367262       12.8729894424
 Cs        12.7700009441       18.5117555454       18.5195533777
 Cs        12.4888564518       18.4926021082       23.6549218832
 Cs        12.7822147588       18.3381322999       30.1549869603
 Cs        12.5781157604       18.3493137529       35.2625434934
 Cs        12.6937926224       25.1114516334        7.2990213741
 Cs        12.8256359451       24.5195805076       12.5568794519
 Cs        12.8311778421       24.5889578214       18.9063240663
 Cs        12.6986231873       24.3067823709       24.4677235316
 Cs        12.9499029071       24.4703584381       30.2983841283
 Cs        12.6178892240       23.7443639841       35.7158116690
 Cs        12.5428283329       30.4223196076        7.3999945321
 Cs        12.9698106929       30.5325022032       12.5370965569
 Cs        12.7324255597       30.5342791371       18.5289495608
 Cs        13.0383407585       30.6480142256       24.4505998496
 Cs        12.6738047347       30.5099180699       29.9304712226
 Cs        12.7925564234       30.6092989445       35.7977389051
 Cs        12.1254584240       35.6161477161        6.9344338038
 Cs        12.4644321242       36.0899172919       12.1015053022
 Cs        12.7136158063       36.2386351240       19.0857064900
 Cs        11.8356098569       36.2873051541       25.0979441395
 Cs        12.4344849214       35.8000173144       30.3024533136
 Cs        12.4611262409       35.8025896452       35.8025071097
 Cs        18.2190552253        7.4645384872        6.8121494966
 Cs        18.3632711345        7.0275043694       12.0769991254
 Cs        18.4370554826        6.8585260724       18.9017560133
 Cs        18.6666256544        6.7657184384       24.9414498050
 Cs        18.3032012888        6.9599927218       30.8076818198
 Br        21.1166579364       24.5240910379       21.5441299529
 Cs        18.7178984654       12.8528525473        7.3228780585
 Cs        18.3322867474       12.7262569546       12.5925332752
 Cs        18.6416734755       12.3059167384       18.4780553746
 Cs        18.4315528595       12.3774262524       24.2551539261
 Cs        18.8071502146       12.4246784676       29.9107622866
 Cs        19.0189710084       12.1756534874       35.8838488874
 Cs        18.7973231446       18.4653035846        7.4461283819
 Cs        19.3432781866       18.4964105237       12.5382557546
 Cs        18.4273574368       18.4216021909       18.2710243347
 Cs        18.1202656381       18.3844277455       24.6962379379
 Cs        18.5921735851       18.5526452988       30.1954960995
 Cs        17.9015927894       18.4762121994       35.9309708838
 Cs        18.6023446186       24.0075611443        7.2398028566
 Cs        18.5559933719       24.3641057865       12.7697820641
 Cs        18.6332973451       24.8022836449       18.5168271519
 Cs        18.4900421656       24.6046872218       24.4722885277
 Cs        19.0616011618       24.5050487943       30.4667478639
 Cs        18.6330834461       25.0171657497       35.7671860401
 Cs        18.4398523527       31.1025429989        7.1428451528
 Cs        18.6735982165       30.4782686298       13.0037737154
 Cs        17.8348564079       30.6436990878       18.5291603317
 Cs        18.7756313642       30.6294995468       24.2296818393
 Cs        18.3033431425       30.3258120743       30.3806822169
 Cs        18.6177189470       30.3236766986       35.6015296672
 Br        21.4996202499       24.5681045851        9.5303783038
 Cs        18.4811060100       36.0316181757       12.6615659806
 Cs        18.5888419738       35.9642512134       18.4717480043
 Cs        18.5090445342       36.1531144224       24.0620935763
 Cs        18.5050008975       36.0553644418       30.9653164424
 Cs        18.3240190410       35.5180097461       36.2273373644
 Br        33.6088606340       30.5491337301       21.0397485404
 Cs        24.5117454932        7.0258290595       12.6000574722
 Cs        24.1580593096        6.9954449443       18.4316711969
 Cs        24.9656646506        6.9811767246       24.3430059203
 Cs        23.9963830184        6.8792650702       30.4426101732
 Cs        24.6313758888        7.3171580131       35.9588115694
 Cs        24.4111580571       11.8483882099        7.1247530959
 Cs        24.1377182532       12.4458383808       13.0218768176
 Cs        24.6394660661       12.2329103178       18.6472114174
 Cs        24.1936815671       12.1555773733       24.3663494082
 Cs        24.4566391684       12.5459119247       30.2386177184
 Cs        24.5153919508       12.5015376217       35.3786568962
 Cs        24.9601611085       18.6170678479        7.0640797903
 Cs        24.4864017104       18.5311471132       12.8608200474
 Cs        24.6053937456       18.3951328386       18.5795469003
 Cs        24.3785741969       18.4438697638       24.3820371889
 Cs        23.9990495414       18.5935395888       30.3685031208
 Cs        24.1933969267       17.9814197852       35.8045221016
 Cs        24.5123362003       25.1842798338        7.2808450020
 Cs        24.0182805008       24.5899796722       12.6284166915
 Cs        24.6560149650       24.7678146174       18.4791678768
 Cs        24.3397580920       24.6279018081       24.6010798001
 Cs        24.4479961932       24.4797675188       30.1727046704
 Cs        24.8172924437       23.9884374366       35.6363766951
 Cs        24.3770944983       30.5856709704        7.5291598961
 Cs        24.4680833716       30.5235973542       12.7780898785
 Cs        24.1602191777       30.7185876438       18.5071310659
 Cs        24.5250661999       30.5071493923       24.3090250649
 Cs        24.1382252092       30.5417053193       29.9665060255
 Cs        24.3146812370       30.8956092935       35.8905786151
 Cs        24.4988931966       35.7887310416        7.0878993369
 Cs        23.9725312468       36.0696667421       12.6273889870
 Cs        24.8273281165       35.9661898234       18.6603407622
 Cs        24.1823862781       35.9891724484       24.5906022998
 Cs        24.6314606064       35.9984731098       30.5463791521
 Br        21.2392220694       24.5082367458       15.5351005155
 Cs        30.4396513129        7.2105669395        7.1707793314
 Cs        30.1066828334        7.1737701236       12.5601072134
 Cs        30.6740710271        7.1330571847       18.6662212191
 Cs        30.5281800581        7.0997709478       24.4528849731
 Cs        30.8559105664        7.0324143811       30.4719083469
 Cs        30.5256728289        7.3543551261       35.9330166734
 Cs        30.2971032214       12.6692113638        7.4118793800
 Cs        29.7383861446       12.4597950278       12.6229819652
 Cs        30.3465974683       12.6566072535       18.3116344093
 Cs        30.0787562456       12.5803503148       24.4104462822
 Cs        30.4496868048       12.5996798815       30.1511553022
 Cs        29.9623247267       12.4912723850       35.6872510117
 Cs        30.4256588005       18.3899754593        7.7721345854
 Cs        30.1592081119       18.3505159380       12.9026934315
 Cs        30.3804435256       18.4205079224       19.1700800412
 Cs        30.3234761547       18.5967481298       24.4400141114
 Cs        30.6399282040       18.4722887439       29.9094047054
 Cs        30.4780292302       19.2277307542       35.6549882913
 Cs        30.4514557946       23.8094875118        7.3380459852
 Cs        30.1853977017       24.4599719210       12.7264587512
 Cs        30.3072275112       24.3951503638       18.5292768732
 Cs        30.2124893652       24.1071608134       24.5916681651
 Cs        30.3151334125       24.6034123888       30.1385956813
 Cs        30.4111519512       24.5790146286       35.1987097192
 Cs        29.9088985492       30.6374240958        7.2793765037
 Cs        30.4082608113       30.5113442466       12.8737833795
 Cs        30.0720742479       30.5515781854       18.5380703247
 Cs        30.3338997225       30.2540858567       24.6015772110
 Cs        29.7196738044       30.4930905295       30.3303028409
 Cs        30.2869198600       30.3088310507       35.5697414712
 Cs        30.4462447890       35.7540899585        7.0934187765
 Cs        30.7759636884       36.0034610326       12.5738698004
 Cs        30.4918054103       35.9424035638       18.5816769155
 Cs        30.7255861893       35.8420415839       24.4103879933
 Cs        30.1017270448       35.7532632511       30.3985895042
 Cs        30.3859856018       35.7958744400       35.7570440658
 Br        21.7955854816       30.5660378291       15.4335672243
 Cs        35.5064201317        6.9164466944       12.4593046682
 Cs        35.9697205509        7.2415361145       18.3656078083
 Br        21.2998407948       18.4258652228       33.4738379274
 Cs        36.0561440222        7.4166360220       30.8461063255
 Br        21.7991670169       30.5708670920       21.6086755432
 Cs        35.5666200582       12.3367922905        7.2711226680
 Cs        35.7674641855       12.0393732672       12.6903746733
 Cs        35.7117637733       12.7867368013       18.8218870794
 Cs        35.9536027597       12.0401543693       24.8367941885
 Cs        35.6373680277       12.6041329023       30.5502792762
 Cs        35.6278031826       12.5781677266       35.8695516819
 Cs        35.5012571304       18.3088951368        7.2206156428
 Cs        36.1168737291       18.4561196957       13.4256347663
 Cs        35.4961912797       18.4602690733       18.6963736666
 Cs        35.9005978681       19.0136185907       24.2956256385
 Cs        35.8448095461       17.8572673843       30.3745918037
 Cs        36.0989634397       18.3699817434       35.6249091946
 Cs        36.0092983163       24.6448658293        7.4433631184
 Cs        35.6533233527       25.1232700568       12.6566086544
 Cs        35.7630626232       23.9914222206       18.6295017992
 Cs        35.5346497282       24.5831551956       24.2741634403
 Cs        36.1712124397       24.5728908013       29.6255063346
 Cs        35.5148774387       24.7341480111       35.8297487831
 Cs        35.5383565413       30.4632795976        7.1454476605
 Cs        35.5480059130       30.4082792168       12.4673569304
 Cs        35.9116485428       30.9182459940       18.1302556095
 Cs        35.7443400951       30.1888121121       24.1459396773
 Cs        35.8012929916       30.9647356859       30.3433647858
 Cs        35.5552353726       30.6906936276       35.7672214031
 Br        20.9785056517       30.6187010471       27.6810451693
 Cs        35.9796610421       35.6268155892       12.1655509126
 Br        21.7680793239       18.4353925462       15.7295231551
 Cs        35.9508128398       35.7437894217       24.6498477903
 Cs        35.4697599483       36.0939315851       30.5344422376
 Br        21.8079315563       30.5722378638       33.2021771520
 Br         6.4516648739        9.9643554218        9.9616364029
 Br         6.4599693864        9.7664294703       15.1516444630
 Br         6.3781795453        9.9212831345       21.9826388598
 Br         6.4491141733        9.3525742816       27.8664300886
 Br         6.6248473481        9.6378367740       33.1973914203
 Br        33.2397319582       30.5581690252       33.0780702679
 Br         6.7944806002       15.6393515345        9.8595471518
 Br         6.7314157806       15.8366200557       14.8603220911
 Br         6.6038620306       15.5611943222       21.9745271006
 Br         6.6417798607       15.8492990295       26.7766606506
 Br         6.5562378793       15.3060640865       33.9052123730
 Br        22.0170169984       36.6815472841        9.5692671917
 Br         6.8311405095       21.3813665359        9.7746068227
 Br         6.8031973968       21.1148450691       14.9312729888
 Br         6.6187200519       21.3888641098       21.9618375958
 Br         6.6926834154       21.1292159388       26.8158753439
 Br         6.5758415589       21.4214350636       34.0089374740
 Br        21.1685072047       36.6178061649       15.2678040138
 Br         6.5467052970       27.3001127578        9.2444032648
 Br         6.8364105861       28.1032750537       16.0809816736
 Br         6.7834892363       28.1055276673       20.9548497100
 Br         6.6211709140       27.5880660101       28.0423617242
 Br         6.6915252786       27.4798151708       33.1693389893
 Br        21.3717009823       36.6372612158       21.6850426179
 Br         6.4252020158       33.0074062027       10.0763839711
 Br         6.7675956713       33.3221084145       15.6631132910
 Br         6.6849732612       33.2505463033       20.9870751077
 Br         6.4260075935       33.3822907325       28.1775612735
 Br         6.5533439492       33.0793714115       33.2164706870
 Br        36.3494500823       27.8623649643       14.9200243446
 Br        36.3594936251       27.3034223328       21.9544653091
 Br        36.3726594670       27.1482625333       26.7749999910
 Br        36.4429387719       27.7271212109       33.9067457865
 Br        22.1790829677       36.6809979253       27.5835747208
 Br        20.7246277910       36.5790578972       33.8359725939
 Br        36.2971096045       27.5529162438        9.7536746349
 Br        12.4772760789        9.5857981368        9.8584245966
 Br        12.5330946289        9.7777644906       15.8902426404
 Br        12.4241511599        9.3322589906       21.4020168989
 Br        12.5376701242        9.1945366982       27.5169532668
 Br        12.6526758037        9.7730637111       33.1612506102
 Br        27.9410939284        6.4172097880        9.6717202642
 Br        27.2766777288        6.3964615582       15.0211707873
 Pb         9.3728127644        9.4321542288        9.5861015542
 Pb         9.3210810913        9.3245255471       15.6084179091
 Pb         9.2285743369        9.2720262924       21.5202865327
 Pb         9.4501286855        9.3891603691       27.4893656465
 Pb         9.5849752569        9.3305398910       33.5349174346
 Br        27.7851815475        6.4318354545       21.9720282782
 Pb         9.7751168071       15.4768329054        9.4733216424
 Pb         9.5387122934       15.4768265951       15.6288257166
 Pb         9.4045165907       15.4489618985       21.2398725712
 Pb         9.5055006833       15.4713828702       27.3536206301
 Pb         9.4635815239       15.3847769708       33.2349951925
 Br        27.6941926629        6.3610810279       26.7371937923
 Pb         9.8431007640       21.4489492858        9.4111703598
 Pb         9.6819549220       21.5727405510       15.5933989886
 Pb         9.4534065191       21.5553910404       21.3283444133
 Pb         9.5858957069       21.4629316473       27.4040115439
 Pb         9.4610232585       21.3749033373       33.2723549548
 Br        27.5895646143        6.4314609776       34.0466358770
 Pb         9.5000635150       27.4904032254        9.7263305701
 Pb         9.7085683233       27.6590916441       15.5475033169
 Pb         9.6246458810       27.7182437300       21.6448082368
 Pb         9.4595273686       27.6108622956       27.3125595617
 Pb         9.7183756921       27.4775043669       33.5227926297
 Br        33.2315694060       36.4529273753        9.5931728331
 Pb         9.3428273670       33.5034542907        9.5307915193
 Pb         9.7434703261       33.8703572388       15.5960779026
 Pb         9.5097482384       33.8870022357       21.6306847392
 Pb         9.2218440700       33.6554759018       27.5014205817
 Pb         9.4908036223       33.5226049612       33.5436752396
 Br        12.7307692456       15.4847193966        8.5870898845
 Br        12.6424638328       15.1500610048       16.2397818654
 Br        12.6217870723       15.4944300857       20.9100476507
 Br        12.5772515885       15.2735033783       28.0558488623
 Br        12.6053698788       15.3784512901       32.7936398033
 Br        27.2469762409       12.4578844040        9.5162106251
 Br        27.4736703307       12.4093131241       15.9217989356
 Pb        15.4243896655        9.4422975020        9.4739656126
 Pb        15.5021542194        9.1947201434       15.6068636345
 Pb        15.4121987633        9.0637797933       21.6015792791
 Pb        15.5709699835        9.2478799176       27.4740463491
 Pb        15.6045623825        9.3251153815       33.7440066279
 Br        27.6830030037       12.4263577925       20.9697526531
 Pb        15.6157779574       15.5227093547        9.5117569869
 Pb        15.5785208349       15.3876702323       15.5703011438
 Pb        15.6074903837       15.4080596138       21.5059843815
 Pb        15.5177974380       15.3090763189       27.3899289150
 Pb        15.6252536680       15.3569346964       33.3766205827
 Br        27.4844627529       12.4029039001       27.9394894614
 Pb        15.6547198235       21.5077712882        9.5988254398
 Pb        15.5930379297       21.5476543723       15.6269429283
 Pb        15.6597942150       21.4723034090       21.5138225884
 Pb        15.5397997730       21.4976448555       27.4547613292
 Pb        15.6454310236       21.4211058207       33.3296881072
 Br        27.5211424981       12.4860892330       32.8454616800
 Pb        15.7204552171       27.6964580646        9.4400915161
 Pb        15.5750801745       27.6220640070       15.4668126599
 Pb        15.5608520399       27.6026403992       21.5783985073
 Pb        15.5245121405       27.6157906970       27.4293084073
 Pb        15.5313139065       27.4896257127       33.5282272557
 Br        33.6810517760       36.6309208913       14.7302217724
 Pb        15.4138154754       33.8695178521        9.2751262005
 Pb        15.4364924303       33.9710028469       15.5028953475
 Pb        15.5170070728       33.7682986086       21.5622563963
 Pb        15.4984997856       33.9124922200       27.4191396520
 Pb        15.5124938043       33.5644945124       33.5191079633
 Br        12.7753110618       21.7214860888        8.6088087976
 Br        12.6618520571       21.8427419902       16.3943864022
 Br        12.6296454060       21.4809578297       20.9639786238
 Br        12.6031066598       21.5092684309       28.2190179313
 Br        12.6232010064       21.3806068715       32.7674729007
 Br        27.2118079439       18.5037871566       10.0944139050
 Br        27.2425527250       18.4814900192       15.3108959394
 Pb        21.4022232337        9.2200000344        9.2653821178
 Pb        21.3357686765        9.1137819413       15.4275477649
 Pb        21.4622797204        9.1561749167       21.5104464394
 Pb        21.4604967209        9.1907457203       27.5273735782
 Pb        21.4907353698        9.2160101558       33.6227748021
 Br        27.1645959858       18.4657473868       21.7731952577
 Pb        21.7315164543       15.4138392347        9.4597777142
 Pb        21.4386775415       15.3590148818       15.6007278883
 Pb        21.4824511956       15.3994316122       21.4924310579
 Pb        21.5476159837       15.3934239586       27.3565882663
 Pb        21.4165592734       15.3416052557       33.3858329732
 Br        27.3727828003       18.4118158439       26.6142496957
 Pb        21.6778761304       21.5167610955        9.4798745094
 Pb        21.4911555769       21.4711103981       15.6861653919
 Pb        21.4189730951       21.4701648855       21.4751814093
 Pb        21.4497905913       21.4845195804       27.3338037595
 Pb        21.5447148803       21.4281411034       33.6038057437
 Br        27.3034557088       18.5127031707       34.0253638034
 Pb        21.3387586231       27.6909358951        9.4428974637
 Pb        21.5024713070       27.5822199845       15.5331495535
 Pb        21.5151268398       27.5569814429       21.4967259799
 Pb        21.3897680707       27.6327081584       27.4753313950
 Pb        21.6763492388       27.5959154067       33.5410707940
 Br        33.5262981786       36.5557621702       22.1251038500
 Pb        21.3578453339       33.8349859952        9.3884353426
 Pb        21.4067971354       33.7105092117       15.5056893254
 Pb        21.5103279838       33.7066121686       21.5221044566
 Pb        21.3572360810       33.9140724182       27.5998829011
 Pb        21.4857235854       33.7551166334       33.7502445029
 Br        12.6580299256       27.5957100105       10.0694953357
 Br        12.6801696748       27.4178894520       14.6777902187
 Br        12.6502967622       27.3549658890       22.3296112106
 Br        12.5899049649       27.8107951031       26.8117141960
 Br        12.6331917924       27.2397355093       34.4306996850
 Br        27.5066725642       24.5522350835        9.4161858757
 Br        27.5714221429       24.5642867484       15.9242409566
 Pb        27.3449261372        9.2571825341        9.3782888106
 Pb        27.3364720390        9.2629131117       15.5348482438
 Pb        27.6166555788        9.3194894605       21.5233229704
 Pb        27.5641048253        9.1518685867       27.5085579035
 Pb        27.4704837668        9.3047381779       33.2986262621
 Br        27.5015216958       24.5222709871       20.9770761845
 Pb        27.3530950067       15.4212251159        9.5835344482
 Pb        27.3733216175       15.3940318272       15.6134386639
 Pb        27.4004737828       15.3680622312       21.5549733467
 Pb        27.4711812239       15.3987309951       27.4345280284
 Pb        27.4677011073       15.5316164531       33.3637560866
 Br        27.4250108204       24.4163526986       27.8316922737
 Pb        27.4359285872       21.5091623056        9.6992384606
 Pb        27.3944723527       21.5433921142       15.5844408821
 Pb        27.2434179901       21.5385673686       21.4325575028
 Pb        27.3853899627       21.3035298161       27.4376021344
 Pb        27.5449874414       21.3971517383       33.0982520355
 Br        27.4097193613       24.4345973965       32.6945524160
 Pb        27.4364464516       27.6353069418        9.6390956900
 Pb        27.4881788019       27.6503903601       15.5874987599
 Pb        27.5077399251       27.5686837657       21.4779806541
 Pb        27.4075454711       27.5165165853       27.3965483736
 Pb        27.3771175782       27.4936494668       33.3878890441
 Br        33.3834404026       36.5648154589       27.3102770759
 Pb        27.3722278113       33.7870583844        9.6803064212
 Pb        27.5087947941       33.8575165678       15.5532161912
 Pb        27.5980590817       33.6753765851       21.5106630460
 Pb        27.3032846166       33.6410722417       27.4374433653
 Pb        27.3358868906       33.6246085087       33.6178093734
 Br        12.4465656624       33.2474669981        9.7433420720
 Br        12.6030431001       35.0557869677       15.5632227582
 Br        12.5995498752       34.1738637391       22.2415591186
 Br        12.5150234307       33.3236187860       27.2306777050
 Br        12.5631869749       33.3780222492       33.2148925328
 Br        36.3206938828        9.5998474471        9.8618999125
 Br        27.4737108328       30.6229621793       10.1235125217
 Pb        33.3563682852        9.3320519177        9.5115226092
 Pb        33.4524760295        9.3600831830       15.5781269851
 Pb        33.7921911659        9.2690976043       21.5756236337
 Pb        33.7451912648        9.2165522426       27.5775629601
 Pb        33.5066550366        9.5403083276       33.6551538418
 Br        27.4563253574       30.6396741089       15.1373536997
 Pb        33.5209704359       15.3909621465        9.8107694963
 Pb        33.4830620995       15.4414668525       15.6444700219
 Pb        33.5652199204       15.4086395186       21.7337862403
 Pb        33.5957175265       15.3518898816       27.3523413813
 Pb        33.3444426829       15.5754418398       33.5897559730
 Br        27.5597677829       30.5308402142       22.0669727231
 Pb        33.6145493502       21.3754476068        9.7345521828
 Pb        33.4610038754       21.4797807261       15.4928014773
 Pb        33.2682530770       21.5119025540       21.4858037045
 Pb        33.6753849400       21.5081670779       27.4886137076
 Pb        33.7139972468       21.6371630808       33.3123904062
 Br        27.4579414664       30.4872349537       26.9897965066
 Pb        33.2494330087       27.4660948605        9.4295179771
 Pb        33.4861122468       27.6394068595       15.6273678596
 Pb        33.5286911383       27.5772991005       21.2780866182
 Pb        33.5274560465       27.5509712566       27.3569649428
 Pb        33.5439634306       27.6205915673       33.2105776913
 Br        27.1739120807       30.4544627043       33.5068856434
 Pb        33.4178492790       33.5131483968        9.3584941357
 Pb        33.6987311397       33.8032024810       15.4379096250
 Pb        33.7858352374       33.7125013776       21.4371190325
 Pb        33.4393964166       33.5913454889       27.4253193497
 Pb        33.3402244466       33.6683994937       33.4880044557
 Br        36.4415021972        9.1860344551       15.2009809548
 Br        36.6220705038        9.6933170527       20.9396368917
 Br        36.5735886362        9.8336462989       28.0889859965
 Br        36.4552117970       10.0441253136       33.3989157041
 Br        32.9181291384       36.5951138507       33.1388550996
 Br        27.4864202046       36.6658880211        8.9860981242
 Br        18.4274808504        9.8624819633        9.6567599817
 Br        18.4248966742        8.2388256995       15.4934591477
 Br        18.4672015177        9.0332486331       21.9622277688
 Br        18.5316786949        9.7862668462       27.0255680490
 Br        18.5785001484        8.8627408532       34.1529453754
 Br        27.5969997419       36.6522700201       16.3040088886
 Br        18.6613894791       15.5439545136       10.1005330048
 Br        18.5195006341       15.8187426662       14.8723986223
 Br        18.5389903695       15.5486260204       22.3086474920
 Br        18.5502102757       15.0923936975       26.8038353218
 Br        18.5358790027       15.3997841069       34.2256380875
 Br        27.7165077225       36.5432317995       20.9926736134
 Br        18.6528781665       21.4325353535       10.1467291798
 Br        18.5377686512       21.1789048294       14.9071921398
 Br        18.5257088465       21.3123667746       22.4287051589
 Br        18.4860859664       21.6018257677       26.7427612953
 Br        18.5612961643       21.6320700115       34.2860478568