    1088
 i =      332, E =     -6548.4849712729
 Cs        21.4129861447       21.0879604774       14.7547204909
 Cs        20.8022261060       15.1603181269       15.2419751967
 Cs        15.2401529347       15.0248810164       15.1030880767
 Br        12.1138625493        8.9239082923       12.4557691250
 Br        33.4150217046       18.5572006715       12.3416250792
 Cs        21.0731783096       26.8176090992       15.1349514420
 Cs        21.3961443256       21.1404347659       20.6712719680
 Cs        20.9713592653       15.2001509859       21.2959979020
 Br        15.2714127997       18.4452080822       23.7726341600
 Cs        32.4592589599        9.7001836635       20.8270712482
 Cs        15.3540501598       27.0078133750       21.1745474548
 Cs        21.2155256150       27.1030225155       21.5329828640
 Cs        21.4725900685       21.0741027363       27.1537623085
 Cs        21.0483127254       14.9497102202       27.3148653012
 Cs        14.9703106241       21.4870696798        9.9135966098
 Cs        14.8579261472        9.7932366264       14.9824688373
 Cs        15.3578360826       20.8539323492       26.8071062173
 Br        18.8621211974       18.3677458186       21.0879424182
 Cs        21.2797065319       26.9150096123       27.3618040279
 Br        33.3100064622       11.3635963234       12.0295630928
 Br        18.6664112431       21.0133294328       24.6412481782
 Br        12.1194014341       18.1316436992       33.1166646670
 Cs        32.4938792555       32.4110378414       14.7387568208
 Cs        10.0167470272       15.3012336648       27.0306226282
 Cs        15.1750032288       15.1355954730       26.9152045883
 Br         8.9668893694       12.0536567568       30.3630874555
 Br        12.2693887627       12.2906131673       27.2316140053
 Cs        10.0860873111       15.4184350169       15.1831936087
 Cs        15.1121892720       27.1958040463       15.0866879880
 Br        12.3141099914       15.0579393089       29.9027137273
 Cs        33.2853541814       26.8668924790       32.0462562466
 Br         6.7164757077       30.4959833393       29.0332263388
 Br        15.2540174764       17.9609058569       19.1288446989
 Cs        32.3569436085       26.9705072146       21.5429092377
 Cs         9.5321763401       15.0518045209       10.0476489205
 Cs        10.0385511319       32.6939834631       15.2215711195
 Cs        27.3313981457        9.6306745159       27.2564232127
 Cs        33.1591967311       31.7895271253       26.9813179357
 Cs        32.5852226707       27.7616662330        9.3096286035
 Cs        21.1881732575       15.0377318973       10.2112070452
 Cs        10.1751976122       21.0696078729       15.3485738912
 Cs        27.2468369454       14.9958388318       32.1883039639
 Cs        32.3104030742       14.8737396106       26.9426792891
 Cs        21.2549740920        9.4674415223       32.3051700282
 Cs        21.4755144806       32.1014604955       27.3254193860
 Cs        21.3900214132       26.9716421555        9.9224164357
 Cs        27.2214491283       21.2375923324       14.8953401347
 Cs        26.9795099233       15.4523567714       15.0094589192
 Cs        15.2458727686        9.9888588679       27.3978619972
 Cs         9.8247408616       20.9343427607       27.1899938255
 Cs        27.5857340310       21.1418639316        9.7458238073
 Cs        27.3485670510       32.6674270104        9.7107753204
 Cs        21.5907165682       27.0855064224       32.4209457107
 Cs        27.0968515365       27.0343467408       14.9063435800
 Cs        27.4586834465       20.7557826135       20.8834172927
 Cs        26.9401148872       15.2160201276       21.2121922046
 Cs        15.4561857579       26.7890270123       26.8554390234
 Cs        27.1153876646       26.5939985489       21.1863122238
 Cs        27.3512675020       20.9321982296       26.9407178211
 Cs        27.1429271156       15.2581127780       27.1104199374
 Cs        15.2553099444       32.1003737205       20.7367929358
 Cs        15.5024396975       21.2069779597       21.1015107888
 Cs        15.2890091571       21.0504181143       32.2934954413
 Cs        27.2358171372       26.7357305108       27.3053104369
 Cs        27.4519284092       20.3985147117       32.5141895023
 Cs        27.3287091597       31.8855430403       20.7564366705
 Cs        32.1994408646       20.8694880353       15.1427941418
 Cs        14.9691288792       15.3340672747       32.4165120483
 Cs        32.2874518954       14.8727650748       21.3827257882
 Cs        10.0352875760       21.6404021220       21.1240539011
 Cs        14.8729887510       32.6741161650       10.0740085770
 Cs        10.1381492490       27.1187424191       21.6927082178
 Cs        15.0722447974       14.8202968597       21.1967596022
 Cs        32.3457582544       26.7911495603       26.9164861366
 Cs        15.3275502393       21.4659044853       15.0751005270
 Cs         9.5338995723        9.9210980977       21.3046209893
 Cs        32.5049568775        9.5177957653       14.9864854311
 Cs        14.4964645062        9.6549904548        9.8681304897
 Cs        20.7292888754       32.1217594437       14.7392194037
 Cs         9.3820583597       31.8676963939       27.2071577754
 Cs        27.4901900130       10.0386629495       14.8831547845
 Pb        24.1527027362       18.0924190315       17.9559033371
 Pb        24.1296513686       12.1924369441       17.8727661119
 Pb        12.1138411698       18.1031959589       24.0646966887
 Pb        18.0415637224       12.0260616393       18.1410804652
 Pb        24.2885922394       30.0085929762       18.0742936100
 Pb        24.2297439940       24.0943306730       18.0134584815
 Pb        24.1472677597       18.0214775510       24.0775009980
 Pb        24.1590755176       11.9262604024       23.9617301177
 Pb        18.3619022581       30.1327231976       24.3791341422
 Pb        24.4339518722       30.0848706565       24.3948202183
 Pb        24.3310527145       23.9391032283       24.1465869669
 Pb        24.2595317833       17.9621140102       30.1606179641
 Pb        24.2644850221       11.7747924191       30.1106735630
 Pb        18.3983306804       24.0550062847       24.1687554414
 Pb        24.6853680746       30.0974316274       30.6157908151
 Pb        24.4644609401       23.9601386831       30.3818484093
 Pb        18.1692789979       18.0136446381       30.1122126546
 Pb        11.9066502777       11.9775503586       24.2760994912
 Pb        12.2457582361       24.2262250908       18.0960160938
 Pb        18.0599298357       18.0119333210       12.0440177710
 Pb        18.0553515599       12.0609382236       24.2844820390
 Pb        18.2653657036       29.9789295988       18.1358180870
 Pb        18.1568413765       11.9046994283       30.3597018976
 Pb        12.3469083970       18.1262195690       18.1567833892
 Pb        11.9413820465       11.9770032847       18.2554077611
 Pb        18.2719336985       24.1736104083       18.0293300312
 Pb        11.9933859330       12.0214254397       30.4572538390
 Pb        12.1464110081       18.0965366598       12.0016583956
 Pb        30.4082154304       18.0260569824       11.7208831673
 Pb        30.4867536177       11.7039950934       11.5869008413
 Pb        17.8884261266       11.8153968886       12.0704353210
 Pb        11.6133298516       30.3056798530       11.9518376342
 Pb        24.1936498317       17.9814382900       11.9827679746
 Pb        24.1052624929       11.8285943304       11.8432061723
 Pb        17.9692814708       24.1611192343       11.8346405340
 Pb        24.2098594931       30.3903701340       11.9688613664
 Pb        24.1764393558       24.1220052846       11.9409474331
 Pb        30.1999108803       17.9752052227       17.8974126948
 Pb        30.2819921166       12.1017602183       17.8034528160
 Pb        12.1188889194       18.1458276150       30.1534935730
 Pb        30.3102635968       30.3562939869       11.7658708199
 Pb        11.7588095821       24.2621421426       12.0539064722
 Pb        18.4741801561       30.1896057569       30.4435994264
 Pb        30.4975850791       29.9499638100       17.8295291640
 Pb        30.2627995492       24.1108740331       17.8552959529
 Pb        30.2788764641       17.9173401296       24.0600264623
 Pb        30.0796509294       11.7123077642       23.9242520320
 Pb        30.2725089498       24.2997881352       11.6511367579
 Pb        18.3143977763       24.0803826714       30.2543396491
 Pb        30.2904424958       30.0641091906       24.1553020452
 Pb        30.2635611841       23.8738294167       24.0716838029
 Pb        30.4629559533       17.8321979436       30.1952667731
 Pb        30.4885506031       11.7064703129       30.0952874799
 Pb        30.8440793943       30.1047310426       30.3784238655
 Pb        30.5663354544       23.9075923457       30.2546561183
 Pb        12.3605335757       24.2527265070       30.3976060313
 Pb        18.2757844083       18.0685476931       24.0824900580
 Pb        12.2814902398       30.1853170254       24.3614226366
 Pb        12.0658377186       30.1336445497       18.1081493708
 Pb        11.7328854690       12.0266320642       12.1778757300
 Pb        17.9383860274       30.0670431105       11.8087378939
 Pb        12.3309804423       24.1404792794       24.2545315205
 Pb        12.5311665212       30.3637823291       30.5714555035
 Pb        18.0558663674       18.1680479561       18.0774367425
 Br        21.1225373025       18.4213145822       17.4917237623
 Br        24.5825599775       18.6318430170       15.0056876822
 Br        24.6255896631       21.0880655643       18.4775559820
 Br        21.0682203422       12.5241814548       18.0156630034
 Br        24.2372278976       11.4917219274       14.9134653622
 Br        23.9574729751       15.1484987382       17.2137691722
 Br        17.3798492790       18.1103993275       15.1177534070
 Br        12.5609515071       18.0187491201       27.0293173549
 Br        17.6604325996       21.1664509846       17.9541493885
 Br        23.7611797855        9.1355212836       18.3562647265
 Br        33.1757242136       17.0758268617       24.1050190840
 Br        15.0158000152       11.6828841959       18.1312678475
 Br         9.2083329208       18.0620542110       24.7092492665
 Br        11.5948396211       18.3999501707       21.0612264676
 Br        33.0841001589       12.0259942171       23.6562944462
 Br        21.2647544911       30.5609606076       17.9194779635
 Br        24.0083757614       30.6770232999       14.8755349623
 Br        24.7202021221       33.0554464210       18.6760401686
 Br        21.2485756164       23.5274246971       17.6047247332
 Br        24.3911436762       23.6636279966       14.9218326962
 Br        23.9334318913       27.0849381698       17.3956632608
 Br        21.2384532077       17.3055448520       24.4649044729
 Br        23.8648188510       17.6416810057       21.0191401655
 Br        23.4444980855       20.9487280187       23.8187185588
 Br        21.1565033592       12.5117928084       24.0651567634
 Br        24.0661886781       12.6507719264       20.9303359760
 Br        24.7982860371       14.9603983443       24.3151942089
 Br        15.0526346182       29.9511958947       12.2735732938
 Br        17.7293653364       30.8220542720        8.8216007894
 Br        23.3257252663        9.0600434561       23.4380655304
 Br        18.1771895009       33.2325293058       12.0539901505
 Br        17.9837379705       27.1633154502       10.9431365359
 Br        12.0483377775       21.1152389144       24.2014585871
 Br        17.8033681705       11.8638073966       15.0264650040
 Br        15.3600345752       30.6125225787       24.0386306923
 Br        18.3691165071       30.1597526976       21.1242360016
 Br        18.7634273495       33.0204179221       24.9891745965
 Br        21.3886382349       29.4847543954       24.4892626031
 Br        24.4464551912       29.5069343223       20.9773245305
 Br        23.7564759972       32.9339283413       24.5987174253
 Br        21.3785514043       24.6477397213       24.4136368598
 Br        23.9257596981       24.4373683560       20.9915632767
 Br        25.0366698535       26.8618982605       24.2963860415
 Br        21.2123472719       18.0927049061       29.7021573913
 Br        24.4386427223       18.4541023527       27.1080125569
 Br        24.1463887619       20.8701532133       30.9223900618
 Br        21.1788311311       12.0482500694       29.9743343278
 Br        24.3141498266       11.5889719033       26.9977429755
 Br        24.2623972936       14.8658313692       29.8617640661
 Br         9.3400378424       24.2653168850       23.8276692704
 Br        12.5783515051       24.2002313692       21.1597488904
 Br        24.1605522467        8.6602135702       30.2286252207
 Br        12.8462548827       27.1357958575       24.1550004600
 Br        12.6007141757       21.0949384007       29.7482082827
 Br        17.9210864685       15.0845399124       17.9050106617
 Br        15.3920799455       23.6498244449       24.1413843624
 Br        18.5381487930       23.7604717451       21.0905955902
 Br        17.8995227086       27.0268005296       23.8582648766
 Br        21.3528521638       29.7185245546       29.9823560290
 Br        24.5488212408       29.7786608195       27.2400002644
 Br        24.3317945251       33.0229819422       30.2559401090
 Br        21.2762205152       24.0042945671       30.1598545544
 Br        24.5409036983       23.5540972095       27.1240495394
 Br        24.4567758270       26.8846971244       29.9116449037
 Br        15.1701050013       17.9879041009       30.0194756882
 Br        24.7399196425       17.5128597754       33.1779956365
 Br        17.9597455651       17.5872832238       27.1146169945
 Br        17.9464695646       21.0065551305       29.6879540908
 Br        24.2464590109       11.4335063498       33.1309518333
 Br         9.2999377781       23.5857494575       18.0942315884
 Br        17.6432926942        9.0346485711       24.7294746823
 Br         9.3691241185       18.2016284859       17.5938104814
 Br        23.9183483813       29.8249637638       33.3919668791
 Br        12.7531700295       18.0303692858       15.0871822849
 Br        12.7455661478       21.1844865159       18.1059945598
 Br        24.3194089150       24.5344118617       33.2781600653
 Br        15.2462777755       29.5030650381       18.2000476987
 Br        18.2192342219       29.5897989151       14.9472731969
 Br        17.7930851996       33.0314339855       18.2945067029
 Br        15.3152268581       24.8197384853       18.1491508221
 Br         8.9344608440       12.1561517624       24.2666613234
 Br        18.0035826408       24.5863676210       15.0137324139
 Br        15.1425111880       18.1386248436       11.2953937302
 Br        18.5544704791       17.5339766126        9.1371153778
 Br        17.9527002333       21.1584143450       12.2802909801
 Br        17.9694000934       23.6744969491       33.2132844864
 Br        15.1436017115       12.3752494245       30.1485828715
 Br        18.0612635221       12.4452815022       27.2284877467
 Br        18.2060479703       14.9550756001       30.5437022342
 Br        12.3446968412       12.0183813101       21.2274876860
 Br        12.2259952557       15.0352885133       24.0505587684
 Br        11.8073616126       30.3186996937       33.4038826784
 Br        33.2436382476       29.4353046839       24.1730125622
 Br        12.2497751972       12.4704115518       33.3573470826
 Br        33.4923792722       30.4189720205       17.5494827617
 Br        33.1908507628       24.5856587663       24.1189527057
 Br        12.5572998336       23.5827082246       33.2779935260
 Br         9.1410353256       17.8451838649       12.4489871123
 Br        33.3901778803       17.3911105314       29.7114338572
 Br        15.0656440539       12.0979660589       24.3364557527
 Br        27.2385332901       18.1051920302       11.7963044790
 Br        30.2903416976       18.7231233863        8.8595641293
 Br        33.3684935066       12.1043301939       29.7243310150
 Br        30.0429429962       21.2466634171       12.2849414591
 Br        12.3629032449        8.8926563058       30.1371943984
 Br        18.2031612226       12.3533559329       21.0967964630
 Br        17.7162727894       15.0660636405       23.8845698775
 Br        27.0603036001       11.8367065162       11.7492317265
 Br        14.9027754883       12.2013332738       12.2398075920
 Br        30.5589613461       15.1347232085       11.3028596177
 Br        18.0297105107        8.8588931726       30.2074730006
 Br        12.4565802801       24.2186738247       15.1207869216
 Br         8.8458452442       30.8920062494       12.3741392048
 Br        12.1146967497       30.6849757942        9.0756815565
 Br        12.2199188694       33.2408556409       12.4484678520
 Br        33.5816629661       29.3133142967       29.4502574764
 Br        21.1390474149       18.0075852260       12.5434638887
 Br        23.7222321279       17.4127502843        9.0474523329
 Br        24.3305821361       21.0894345742       11.5578933283
 Br        20.9431201038       11.9594089297       12.3919046809
 Br        23.5242766080       12.1629821675        8.8400762172
 Br        24.0762036036       15.0068629029       12.5225790411
 Br        30.0379784730        8.9002155314       12.5164793682
 Br        11.5782059726       27.1676289788       18.3917596204
 Br        24.1270807981        8.8463376963       11.3962020521
 Br        18.1300174132       14.9905699312       12.4091881369
 Br        15.0380655890       24.3367613161       12.1784509045
 Br        33.2790786054       30.2240189238       11.8588566779
 Br        19.0678047851       27.0606070196       18.4307441378
 Br        33.2395920211       23.5583217037       17.4917297742
 Br        21.1137913278       29.8517952947       12.0228933588
 Br        24.4568588898       30.6806743010        8.6180003874
 Br        24.3002452356       33.3929386299       11.6985234442
 Br        21.1545751655       24.1586504543       12.2139639994
 Br        23.8040108168       24.4703671337        8.8706414193
 Br        24.0821598390       27.1680697924       12.4203256428
 Br        27.1305345683       17.5582017897       18.2933193401
 Br        29.7647882042       18.0320436777       14.9447834370
 Br        29.6595679512       21.0523412464       17.8149744650
 Br        27.1848108761       12.4802255638       17.6601361939
 Br        30.2743916289       12.3553694650       14.8378259955
 Br        30.8736339613       15.0224418120       18.0450530713
 Br        30.1275033895        8.9499712464       17.7202048491
 Br         9.0771700769       18.1109162762       29.7984893071
 Br        18.8552771478       29.8240977921       33.3514077462
 Br        27.1533742043       30.2244468098       12.2094263367
 Br        33.4573738283       24.2881234555       29.5723911761
 Br        27.3271681619       29.5991858096       17.8855527116
 Br        30.2439902829       29.6838329759       14.8795582203
 Br        30.4671233935       33.1488303688       17.7565233153
 Br        27.2251045938       24.6506095653       17.9854917108
 Br        29.9478263773       24.2352649020       14.8775765429
 Br        31.1057618267       27.0289403996       18.1007419450
 Br        27.2055153998       18.4797585909       23.8676467467
 Br        30.2175574559       17.9064727728       21.0128546765
 Br        31.0964397411       20.8658443035       24.0289037349
 Br        27.0836994453       10.8335918524       23.8624355746
 Br        29.8922844916       12.1150335477       20.8904650516
 Br        29.6291233236       14.8432397708       24.0250961868
 Br        30.2846545473       30.6224458559        8.7982028694
 Br        30.2091704561       33.3185134504       12.0592402678
 Br        30.7299637174        8.6958886939       23.7844336345
 Br        17.3494424909        8.8463468794       12.0691219992
 Br        27.2558250917       24.1807864123       11.7520287840
 Br        11.4864140277       17.8576552099        9.0217116416
 Br        15.2610039884       31.1427529092       30.9732018329
 Br        18.1952133396       29.5068316011       27.2515665672
 Br        18.9230943769       33.0996297318       30.0687055770
 Br        27.3359020751       31.0856991640       24.2149790006
 Br        30.1326728003       29.7380490531       20.9772407536
 Br        31.1767589827       32.9988719166       24.2135742577
 Br        27.2445720750       23.1497871440       23.7435723608
 Br        30.1842832503       24.0727333979       20.9595071623
 Br        29.6516304252       26.9126916402       24.1048429148
 Br        27.2788731069       17.9500389841       29.8824052612
 Br        30.0394958367       17.8968381683       27.0701299129
 Br        30.5503344058       20.7367988315       30.6674323650
 Br        27.2235267641       12.0687351596       29.9128467546
 Br        29.9527816975       12.0312153466       26.9204026844
 Br        29.9890264838       14.7216553981       29.7890835547
 Br        29.7785561700       27.2535793131       11.2667936990
 Br        12.3680591340       29.8227444845       27.3508729813
 Br        30.1289129749        8.5393174521       29.6015974530
 Br        33.1644193063       18.3422057253       17.6654803134
 Br        12.4293160236       21.0976536621       12.4458778757
 Br        11.2439467556       32.8981115039       30.1319018002
 Br        15.1470122960       24.5595964782       30.1457574839
 Br        18.2866122686       24.4006140141       27.1665134746
 Br        18.4494754912       27.0114524655       30.4083590459
 Br         8.9378345174       23.5177032563       12.7261074086
 Br        27.5371664474       30.1517422790       31.1778074673
 Br        30.1566139264       29.7665335641       27.0689387128
 Br        31.2526388555       32.9272137640       29.7656722181
 Br        27.3802310782       23.4253117648       30.3307354016
 Br        29.8949211630       23.8569235328       27.0370872491
 Br        30.2156658328       26.8417795661       29.9426303585
 Br         8.8721724810       12.0254777891       18.4566097204
 Br        12.2499514760       12.3652481929       15.2400501855
 Br        29.9103253248       17.4541102622       33.1667620192
 Br        12.3900067025       15.0593393406       18.1671372388
 Br        30.4841517372       11.6833676600       33.0686122029
 Br        33.2898623975       11.5430882577       17.9578228446
 Br        11.5120258392        8.9205629517       18.3869793244
 Br         7.6893395316       23.0027718129       29.4263546503
 Br        12.4950605049       24.0111117543       27.2124647379
 Br        11.6674949614       27.0834577523       30.7571181262
 Br        18.4428296928       11.4118207730       33.3450805726
 Br         9.2969393011       29.8907792112       24.0491195040
 Br        31.7013476015       29.8939752998       33.0905181380
 Br        12.4845368562       29.8892066479       21.2406848669
 Br        30.9600555210       24.3147520018       33.1147325146
 Br         9.1006941995       30.5442580757       18.0242073303
 Br         8.8235754245       12.6229448611       12.6046881220
 Br        33.4673217118       24.9090770672       11.2100230296
 Br        11.6225510379       12.0153247406        9.2077153935
 Br        11.4356756673        8.8889106037       24.1525002265
 Br        12.3189914191       15.0442247324       12.2122119247
 Br        12.0767903431       23.7500008588        9.0670852597
 Br        11.0575013399       27.0957051935       11.7818224196
 Br        11.6809465327       33.2070287142       24.6361495792
 Br        12.1638646808       29.8540239556       15.1757446711
 Br        12.1885426720       33.2960144396       18.2307380532
 Br        17.4159981192       11.4505980052        8.7924780049
 Br        30.2628225811       11.1656527660        8.7406387958
 Br        17.7685863053       23.5918546984        8.9320707716
 Br        30.2131394535       23.8032657576        8.7530006205
 Br        18.3429764993        9.0135064649       18.4286838154
 Cs        21.1931609279       10.2143799979       20.8304154327
 Br        17.7627354379       18.1087948796       33.2127987381
  C        21.0535457724        9.6452357169       15.7179840005
  N        21.2363332230        8.2185121872       15.2533564951
  C        20.9920311693        7.2864886988       16.4059949798
  C        20.2543556919        7.9456558598       14.1518925486
  C        22.6394082454        8.0300869908       14.7496919708
  H        22.7632154182        6.9840876902       14.4494027177
  H        22.8098911350        8.6849556076       13.8884599832
  H        23.3269921719        8.2902458545       15.5630714822
  H        20.4294320603        8.6630149656       13.3435108765
  H        19.2383029577        8.0828690450       14.5348067643
  H        20.3931289175        6.9204632871       13.7935847782
  H        21.7505644156        7.4935497062       17.1716459960
  H        21.0770913356        6.2561398059       16.0445942513
  H        19.9931360641        7.4840253329       16.8144731132
  H        21.2437802922       10.3155899146       14.8732025188
  H        21.7664145383        9.8318534577       16.5257093622
  H        20.0272819456        9.7563505243       16.0798438465
  C         9.7715762174       15.2350839013       32.0748609972
  N         8.4563162935       15.2482608071       32.8196367904
  C         7.3346053123       15.2213624534       31.8163048145
  C         8.3824149839       14.0312189140       33.6982131664
  C         8.3753344052       16.5009641513       33.6381512208
  H         7.4291902180       16.5092986680       34.1897702826
  H         9.2293758515       16.5287725098       34.3236701728
  H         8.4376780407       17.3526362866       32.9503193362
  H         9.2350288787       14.0445911245       34.3858858213
  H         8.4504840438       13.1454364260       33.0523958477
  H         7.4356829519       14.0457981168       34.2485540090
  H         7.4422710499       16.0979804869       31.1638288890
  H         6.3802611194       15.2457818533       32.3531368493
  H         7.4313445571       14.2965583025       31.2321610897
  H        10.5905125280       15.2551000201       32.7988544144
  H         9.7965164700       16.1181107678       31.4298904435
  H         9.7997045857       14.3192182689       31.4789275951
  C        21.7536146939       32.3398206092       21.2909024378
  N        21.4099176746       33.7939227129       21.0675069324
  C        20.1664160542       34.1249170208       21.8393821875
  C        22.5517735704       34.6518762074       21.5338810979
  C        21.1712941763       34.0381201037       19.6032028724
  H        20.9488127406       35.1021799188       19.4677134978
  H        22.0796826856       33.7571074132       19.0567845309
  H        20.3171839173       33.4348032454       19.2743117446
  H        23.4227615045       34.4212036884       20.9080261995
  H        22.7683753112       34.4131299880       22.5829195632
  H        22.2651388614       35.7024304300       21.4179937160
  H        19.3553877327       33.4864214662       21.4719966796
  H        19.9222157482       35.1798712627       21.6765832702
  H        20.3312086622       33.9257807421       22.9041559412
  H        22.6582373494       32.1080568645       20.7201604546
  H        20.9148054869       31.7280963940       20.9418934713
  H        21.9280076815       32.1908811453       22.3620802360
  C        21.1541476748        9.5173525811       26.6660845716
  N        21.4071670286        8.0355442373       26.8220984529
  C        22.8876238481        7.7680327796       26.8343068716
  C        20.8078496403        7.5668490886       28.1146353025
  C        20.7782805170        7.3032062412       25.6694411902
  H        20.9257911663        6.2288195532       25.8215651664
  H        19.7115237161        7.5571373180       25.6240698890
  H        21.2795571731        7.6337521027       24.7509282444
  H        19.7473271253        7.8397799680       28.1516591487
  H        21.3470338775        8.0569231299       28.9322144511
  H        20.9330051287        6.4811633855       28.1859224002
  H        23.3064936831        8.1318779573       25.8875405785
  H        23.0359755005        6.6871506107       26.9344367221
  H        23.3303406862        8.2860062829       27.6935347447
  H        20.0713418803        9.6814884975       26.6579482888
  H        21.5979718794        9.8440383379       25.7199710654
  H        21.6214263479       10.0443579204       27.5038914866
  C        15.3377504980       27.5656583345       32.5442592464
  N        15.2525859741       27.6379915738       34.0458289597
  C        16.4368452268       26.9194291358       34.6310372716
  C        15.2698045437       29.0779562541       34.4867761901
  C        13.9728572332       26.9873321679       34.4941871025
  H        13.9316481163       27.0215421718       35.5879049787
  H        13.1329086900       27.5477030943       34.0652897227
  H        13.9482035107       25.9485569966       34.1418294905
  H        14.3955364752       29.5872941387       34.0628514278
  H        16.2015968383       29.5373090997       34.1332866174
  H        15.2235696689       29.0992964384       35.5808647728
  H        16.4586535071       25.8877929987       34.2583853116
  H        16.3479093857       26.9351166583       35.7222757965
  H        17.3438535546       27.4494535243       34.3145087736
  H        14.4643840470       28.0725603802       32.1249608383
  H        15.3432365095       26.5136951225       32.2394414816
  H        16.2637602074       28.0520705075       32.2251376177
  C        21.1298871773       16.1900766498       32.6132463417