    1296
 i =      486, E =    -17504.3718111776
 Br        41.8238778932       38.6451829065       15.0061731695
 Br        41.9149588079       38.4656470483       20.4233513843
 Br        42.2264654455       38.8895021416       27.8560425142
 Br        42.0487655772       39.4481738829       33.4391169213
 Br        41.8969596303       38.9893029367       38.8063625401
 Br         6.1032286859       32.4207004705       27.1656526692
 Cs         6.5164046231        6.9788338730       12.0288783924
 Cs         6.7801380141        6.6529044673       17.8991605309
 Br        32.7893644397       24.0058173022        7.8436929134
 Cs         6.7683019553        6.8185290534       30.0448555293
 Cs         6.7181480678        6.8516577013       36.0045484512
 Br        32.9705575952       29.8778634233        9.6445736152
 Cs         6.8330911829       12.0316365326        6.7351579416
 Cs         6.7645730026       12.5053394881       11.9439367736
 Cs         6.7699488876       12.0015959542       18.2795206037
 Cs         6.3885530427       11.4168372837       23.4786748702
 Cs         6.4623769408       12.3723092464       29.4296017722
 Cs         6.5813370620       12.2888680266       36.3576917825
 Cs         7.0180937420       12.0068200573       41.5126579366
 Cs         6.6187472912       17.9004000026        6.7683293197
 Cs         6.9349950836       18.0513018947       11.9966045847
 Cs         6.6237760514       18.0680083599       17.4401859361
 Cs         6.5086278118       18.0970098591       24.4111712313
 Cs         6.8407790242       18.1127251250       30.0409149269
 Cs         6.9227787697       18.2575472558       35.7311162355
 Cs         6.6870587852       17.9390425989       41.2315438327
 Br        32.7036064055       18.1257983235       21.8025864699
 Cs         6.6054235665       23.9703066260       11.3730725401
 Cs         6.5682739617       23.9737678998       18.3768625447
 Cs         6.6666157264       24.0052987889       23.6298036201
 Cs         6.5317984009       24.0319526622       29.7372456335
 Cs         6.6284561890       24.1123735643       36.6616821865
 Br        32.9612121650       24.0565076999       39.3852801957
 Cs         6.6292815410       30.0332747524        6.7737672934
 Cs         6.9448432125       29.8894727713       12.0046438836
 Cs         6.6330454201       29.8494119829       17.4535085993
 Cs         6.5173085784       29.9232689945       24.4007671317
 Cs         6.8830789678       29.9116947177       30.0780862734
 Cs         7.0183690854       29.8200706409       35.7962287474
 Cs         6.6133658731       30.1345571790       41.1652678760
 Cs         6.8128274684       35.8830266425        6.7450957884
 Cs         6.7862066804       35.4317979540       11.9758318549
 Cs         6.7958616365       35.9338151964       18.2499693068
 Cs         6.3945669606       36.5494243275       23.4608222522
 Cs         6.5029442903       35.6369676019       29.3966770502
 Cs         6.6602074291       35.6692965894       36.2839457653
 Cs         6.9520132736       36.0258087364       41.3987282188
 Br        33.1027266275       29.9824218846       33.4435095127
 Cs         6.4831546971       40.9524076251       12.0045078895
 Cs         6.7326971429       41.2742173895       17.8718013750
 Br         5.9957744669       33.6459943317       21.2700888517
 Cs         6.7909339925       41.1949398459       29.9902938647
 Cs         6.7524843437       41.1410605464       35.9390338128
 Br        32.8691389650       30.0495417092       38.1675085778
 Cs        11.9110722763        6.6915070359        6.8468117002
 Cs        11.6513315548        6.6100584582       12.2971674437
 Cs        12.3548788983        6.8544939315       18.2398507775
 Cs        11.8051475192        6.6632031238       24.5873266925
 Cs        11.9681724146        7.2628608484       30.0042898353
 Cs        11.7534717140        6.8707596156       35.4957286167
 Cs        12.0721934045        6.7456733924       41.1159465518
 Cs        12.4658181394       11.7736379403        6.8330785936
 Cs        12.0294881080       12.1884538251       12.3329428057
 Cs        12.2369623534       12.1943351374       18.5583819953
 Cs        12.0616124043       12.4760211539       24.0251850829
 Cs        12.2260346733       12.3285955920       29.8362382716
 Cs        12.1452373284       12.4982954058       35.8859504768
 Cs        12.5265395447       11.9182038823       41.1339176914
 Cs        12.1146025777       18.3649920957        6.6088362622
 Cs        12.1421414116       18.6020510726       12.1170433947
 Cs        12.2458356539       18.1191810164       18.0225629108
 Cs        12.0851906711       18.3284251731       24.4285248568
 Cs        12.0951007414       18.7914992010       30.1506086732
 Cs        12.2725237143       18.7371542319       35.8013231967
 Cs        12.0276128234       18.0071868484       41.2674702312
 Cs        12.1470653100       23.9942982211        6.5788010156
 Cs        12.6930691456       23.9950851995       11.9467325173
 Cs        11.8239400254       24.0045564473       18.0201423764
 Cs        11.9626813455       23.8925612900       24.0954178042
 Cs        12.2561624994       24.0005930355       29.8974239781
 Cs        12.3462528283       24.0413889592       36.0721597491
 Cs        11.8934110311       23.5881538872       41.6351615071
 Cs        12.1149454343       29.6156991878        6.6154279749
 Cs        12.1584549276       29.3791396519       12.0747198243
 Cs        12.3351761992       30.0167129442       17.9945980083
 Cs        12.0992720716       29.6082667123       24.3995056475
 Cs        12.1294930406       29.3117294917       30.1385062442
 Cs        12.2997438519       29.3985496864       35.8533098237
 Cs        12.1314712958       29.8278109153       41.3435415239
 Cs        12.4430521647       36.1417637679        6.8515122091
 Cs        12.0535404906       35.7344765240       12.4013520282
 Cs        12.3296831084       35.8593400749       18.5244233763
 Cs        12.0587777442       35.4686594109       23.9723248508
 Cs        12.2330483387       35.7504464063       29.7555155441
 Cs        12.2359609504       35.6350171075       35.8771436818
 Cs        12.4758995448       36.0850559055       41.1813077831
 Cs        11.8535740875       41.2394035852        6.7928995282
 Cs        11.6259113307       41.3465552988       12.2697403749
 Cs        12.2617829997       41.1484388888       18.1616737703
 Cs        11.7814395445       41.3663546928       24.4513324436
 Cs        11.9542644629       40.7788938447       29.9540685629
 Cs        11.8251032911       41.1313631657       35.4249831431
 Cs        12.0655330289       41.2826174064       41.0662419831
 Cs        17.8328317047        6.6881355385        6.7169450823
 Cs        18.4797835083        6.4121491895       12.3479842323
 Cs        17.9647792563        6.8887725611       18.0291461070
 Cs        18.5652352164        6.6666871485       23.8839456898
 Cs        17.5558220036        6.8042435283       30.1171454367
 Cs        18.5403581847        6.5385582736       35.8079530156
 Cs        17.9623233601        6.8259089941       41.3511403296
 Cs        17.9405587141       11.8245240330        7.1709435031
 Cs        18.3916923868       11.9949893786       12.2895508056
 Cs        18.1102914602       12.0616758204       18.3851081727
 Cs        18.2725707064       12.4030199177       23.9205004210
 Cs        18.2076993551       12.1182533445       30.3034187131
 Cs        18.2690653612       12.2481283437       35.8452516454
 Cs        17.9277961690       11.9699588371       40.9339099917
 Cs        17.9993892760       17.1751277210        6.5798329245
 Cs        17.6025885901       17.8807071115       12.1858961033
 Cs        17.9346898345       17.5426492347       17.6477987294
 Cs        17.9480485031       18.1482985483       23.5847977302
 Cs        17.6530139602       17.7876379213       29.8941059235
 Cs        17.7104506502       18.1448171124       35.9479906355
 Cs        17.9682078130       17.3113746217       41.4525751067
 Cs        18.5783121854       23.9723760213        6.3000478476
 Cs        18.1303546133       23.9470865923       12.0695016436
 Cs        17.6340995003       23.8975871986       17.9334310488
 Cs        17.9389285817       24.1897781032       23.6056330896
 Cs        18.1251881937       24.2562711104       29.7265478141
 Cs        18.0969739777       24.2137116516       36.1705514914
 Cs        18.8249343804       24.0833043452       41.7207836566
 Cs        17.9992404349       30.7797817443        6.6310161582
 Cs        17.6556318418       30.1562605899       12.3143967329
 Cs        18.2530314532       29.9223462007       17.9340834315
 Cs        17.9053410081       29.9150499995       23.7394107787
 Cs        17.5736241750       30.2493382816       29.9607857611
 Cs        17.6431020029       29.8429559920       35.8476058927
 Cs        17.9066055536       30.3437279446       41.2922067230
 Cs        17.9135432731       36.1309790342        7.1323914889
 Cs        18.3192692234       36.0859665534       12.2027299878
 Cs        18.2544892926       35.9670902045       17.5456698653
 Cs        18.3046692735       35.7582227904       23.9897993398
 Cs        18.1309129260       35.8804828549       30.3452266415
 Cs        18.5317021927       35.6874817271       35.8730650859
 Cs        18.0227832375       35.8596149761       41.0030431608
 Cs        17.7883298402       41.2543490564        6.6179801453
 Cs        18.4347712512       41.5889304464       12.2150449239
 Cs        17.8602241109       41.2522958115       17.9269938642
 Cs        18.6825492971       41.5045655994       23.9404130994
 Cs        17.3279973869       41.3457746821       29.9441704577
 Cs        18.4505083864       41.3633054640       35.9416103164
 Cs        17.9354299651       41.0715294482       41.4417111261
 Br        33.2920402812       18.0314812735       26.6115936329
 Cs        24.7878485208        6.4883174769       11.8611000891
 Cs        23.9704922825        6.6531399296       18.6119550450
 Cs        23.9683123472        7.0316447302       24.0368149572
 Cs        23.5182018640        6.6162510137       29.7641850249
 Cs        24.5120028358        6.4290090420       36.6009205735
 Br        32.5280613704       24.0127805381       27.4802810750
 Cs        23.3300839741       11.6266161483        6.5480026763
 Cs        24.0354994848       12.0022709079       12.1426786817
 Cs        23.7785088857       12.5319909670       18.1352909707
 Cs        23.9056980117       12.4336539785       23.7600358000
 Cs        24.5159667250       12.0352432569       29.8741747016
 Cs        23.8393014511       12.0090183048       35.4464331402
 Cs        23.3992573947       11.7319315678       41.5203969923
 Cs        24.1017416214       18.5255427936        6.6446384352
 Cs        24.3488262287       17.8853225830       12.2878365496
 Cs        23.7106787942       18.2758779658       18.0380044960
 Cs        23.8579620864       18.1184454075       23.9436090384
 Cs        24.2553399532       17.8188409980       29.9803707042
 Cs        23.8359694189       18.3679760469       35.8307291379
 Cs        24.2488135746       18.5058248299       41.4754274890
 Cs        23.9410197666       23.9967463684        7.0325954705
 Cs        24.2856776980       23.9206850828       12.3887057003
 Cs        23.8213328318       24.3376981212       17.9437534673
 Cs        24.0868551743       23.9915273918       23.7088780722
 Cs        24.1125301186       24.0401662749       29.8688760619
 Cs        23.7404876897       23.7225559084       35.8837946011
 Cs        24.1638686113       23.9974874506       41.0829218481
 Cs        24.0590714530       29.4452469220        6.6728377910
 Cs        24.2602460428       30.1097425079       12.3481425935
 Cs        23.8416829668       30.0460907646       18.4594783530
 Cs        23.8744755727       30.2912610795       23.8144066262
 Cs        24.0833184929       30.3413614999       29.7887683540
 Cs        23.8202423312       29.6927445655       35.8567007935
 Cs        24.2292818180       29.3609917270       41.4490048213
 Cs        23.3160288959       36.3571225319        6.5169199760
 Cs        23.9732629979       36.0602186365       12.1667915252
 Cs        23.6351748345       35.6725329920       18.1065224249
 Cs        24.0470136175       35.8921185183       24.2067168984
 Cs        24.5651717280       36.1152542277       29.9000956979
 Cs        23.8603742606       35.8700803406       35.4015455659
 Cs        23.6211720688       36.3768996460       41.4660744827
 Br        33.7615057057       17.9723399393       32.9364323803
 Cs        24.7380104362       41.5365310140       11.7887183499
 Cs        23.9541728187       41.4763789998       18.6404919248
 Cs        24.1139946020       40.9646556887       23.9546113768
 Cs        24.0111096133       41.4402817991       29.3802545681
 Cs        24.2257814394       41.3532271451       35.8876110046
 Br        32.5003525594       23.9417743614       32.6711246191
 Cs        30.2259094151        6.6266348778        6.8746881975
 Cs        30.1324148967        7.1680031966       12.0446435050
 Cs        30.3193652037        6.6441272086       17.4839427342
 Cs        29.3875232045        6.5813680467       23.8183480048
 Cs        30.5583235754        6.5847868723       29.9556456317
 Cs        29.8266441233        6.7266115707       36.0632259474
 Cs        30.1674304135        6.6098600372       41.3149968702
 Cs        29.5694749731       12.2338039322        6.5436106246
 Cs        29.6070826275       12.3143615407       12.1874463524
 Cs        30.3279224427       12.0416514047       18.2755809678
 Cs        29.8251961116       11.9134307164       24.4171556341
 Cs        30.1881838677       12.5388562136       30.0079748418
 Cs        29.4891746176       12.0620214173       35.7556163665
 Cs        29.7536063248       12.3251221454       41.3118916792
 Cs        30.0754337378       17.9405214977        6.8679815544
 Cs        30.0942477551       18.6896656995       12.0750562822
 Cs        29.9938347450       17.8128119363       17.5813954667
 Cs        29.9312406884       17.7943732092       24.2853718536
 Cs        29.9502007658       17.8803147469       30.0303594744
 Cs        29.4778001727       17.9278264530       35.8166045482
 Cs        29.7983077487       18.0129258627       41.0395758227
 Cs        29.3042081465       24.0210088643        6.6774404428
 Cs        29.8735803615       24.0067272969       12.6692256241
 Cs        29.7130264801       23.8052416184       18.1448544196
 Cs        30.0650315556       23.7386090135       24.3295144017
 Cs        29.9636761893       23.3134910636       30.0118288301
 Cs        29.8029924173       23.6416998285       35.5587393449
 Cs        29.7931023192       23.6316693483       41.3386187322
 Cs        30.0144241060       30.0315812841        6.7644830270
 Cs        29.8642063751       29.7604968515       11.8831676378
 Cs        30.0135633480       29.7464017504       17.8400664519
 Cs        29.7080603687       29.6825826327       24.2394911213
 Cs        30.2912485321       30.1417069821       29.9423630710
 Cs        29.8880980376       29.7758960106       35.5671052482
 Cs        30.3114863811       30.3556230866       41.1649019851
 Cs        29.5101192900       35.7486390415        6.5249342078
 Cs        29.5673160013       35.7315291011       12.0898703741
 Cs        30.4599569387       35.7863670851       18.1468278601
 Cs        29.9775511948       35.6178851281       24.3249858133
 Cs        30.0336322901       35.4082621037       30.2054870844
 Cs        29.4241322438       35.7424914025       35.8261361550
 Cs        29.6029069084       36.0016054329       41.3611150415
 Cs        30.1769820502       41.3700406175        6.8102144553
 Cs        30.0838403059       40.8665449526       12.0143310321
 Cs        30.2629894715       41.2222205619       17.6645978627
 Cs        29.8026035163       41.2266906528       23.5012311742
 Cs        30.0925630638       41.4251157640       30.5104469497
 Cs        30.0492770981       41.1150952585       35.8665372523
 Cs        30.0155023532       41.5460603836       40.9988715675
 Cs        36.1260167316        6.8514560115        6.7862471642
 Cs        35.6347747104        6.8770862876       11.8766226224
 Cs        35.9024033855        6.6791479812       18.4291216285
 Cs        36.3823600414        6.4941399827       24.4736204569
 Cs        35.9655784719        6.9696807395       30.0788582494
 Cs        35.9439098051        6.7984138484       35.5160110390
 Cs        36.0383787294        6.3655787139       40.9450304037
 Cs        36.3184359428       12.3199362569        6.6657011906
 Cs        35.9242448456       12.4308349393       12.1861577859
 Cs        35.9015905501       12.2954965187       18.4378643939
 Cs        35.6961354445       12.2100103335       23.9148326544
 Cs        35.8050455293       12.2152670489       29.4376903531
 Cs        35.6187956102       11.9600852326       35.9421526909
 Cs        35.8308062837       11.4899131401       41.4566115555
 Cs        35.7081140190       18.1338791238        6.9731243705
 Cs        35.8164340179       18.7217479547       12.2795822315
 Cs        35.9597482812       18.2571436608       17.7018996284
 Cs        35.8118001045       18.4170436693       23.9132796025
 Cs        35.7088441448       17.8504801694       29.6807346123
 Cs        35.7030011771       18.0276053292       36.0082577137
 Cs        35.0338087918       18.0140366653       41.8181888280
 Cs        36.2720582064       24.0200833198        6.5544368797
 Cs        35.8526724241       24.0099363313       12.2642549791
 Cs        35.9611929047       24.5572241855       18.0980685337
 Cs        35.7588930748       24.3494065987       23.5894714918
 Cs        35.6017580073       24.2734805800       29.7621252916
 Cs        35.5619801783       24.0141874068       35.7523909191
 Cs        35.9749194294       24.8012337691       41.3086942983
 Cs        35.6398699201       29.8527373033        6.9044997369
 Cs        35.7639590726       29.4345445007       12.2593795183
 Cs        35.9665718829       30.1027143148       17.8798851341
 Cs        35.6361110581       29.8032616134       23.9663444937
 Cs        35.8288606495       30.1751803218       30.1645916386
 Cs        35.9512742624       29.9451429426       35.7462940298
 Cs        35.9954119066       30.1165270191       40.7919085352
 Cs        36.2361320712       35.7451707444        6.5837304153
 Cs        35.8453999538       35.5680334222       12.1606221260
 Cs        36.0028403123       35.6845871020       18.1500799765
 Cs        35.6529944105       36.1014873214       23.8562537833
 Cs        35.7093548112       36.0275797618       29.6431863005
 Cs        35.9688567380       36.0458631903       35.7324034477
 Cs        36.1541321414       35.5484945419       41.1998036642
 Cs        36.0761362964       41.1926316820        6.7316859177
 Cs        35.6159098611       41.1576137890       11.7991708952
 Cs        35.9036666103       41.3858036828       18.5216090734
 Cs        36.7278034832       41.5216322924       24.5534995131
 Cs        36.1566221647       41.2344109222       29.8198914297
 Cs        35.5960142235       41.2199764514       35.9515881494
 Cs        35.8140857149       41.2406511610       41.2609523458
 Br        32.5704842528       29.8738767927       14.4175416382
 Cs        41.2577596865        6.8625776320       12.0890211658
 Cs        41.4948212585        6.9884636051       17.9489330557
 Br        33.3707005844       24.0600243743       20.5977876003
 Cs        41.0939669627        6.5224091035       30.0798453409
 Cs        41.2303148753        6.7817798366       35.8564235940
 Br        32.4419504145       29.9605915546       21.7030610534
 Cs        41.4780322368       12.1105563085        6.9845213638
 Cs        41.2318168338       12.0470942063       12.5165363634
 Cs        41.0147102297       12.1818366846       17.9759449337
 Cs        41.5461876024       11.8096210870       23.4544478351
 Cs        41.3975700913       12.0791984464       29.6220797312
 Cs        41.1529104608       12.4576855304       36.1857782576
 Cs        41.2364194815       11.7799163849       41.2983274585
 Cs        41.1393360144       18.0031187635        6.6690347202
 Cs        41.2352277587       18.2028176452       12.0641764722
 Cs        41.3368645295       17.6966645671       17.8426208245
 Cs        41.4717021757       18.7428583130       24.1984818410
 Cs        41.1795715711       17.6957514508       30.3855165483
 Cs        40.7378785522       17.9112243281       36.0504420757
 Cs        41.3027882096       17.8695880523       41.1772388078
 Br        33.0648983886       18.0220117743       38.7819567996
 Cs        41.5592092586       23.9397709510       11.4802811722
 Cs        41.5578584506       24.0141061762       18.7234999761
 Cs        41.0377611443       24.0831567926       24.1501471155
 Cs        41.3392093243       24.4383917103       29.7984519039
 Cs        41.1971461645       23.2307659506       36.0009489928
 Cs        41.7030923403       23.6431068239       41.1547360449
 Cs        41.0545409388       30.0456129869        6.5107396821
 Cs        41.2070868029       29.8665674283       11.9253760751
 Cs        41.3973681393       30.2617479800       17.5779893491
 Cs        41.3999656934       29.7751431230       24.5067099774
 Cs        40.9525310618       29.9391238511       29.8736925274
 Cs        41.7474896694       29.9137367985       35.1068253439
 Cs        41.1400576228       30.0950143710       41.4143581730
 Cs        41.4199499808       35.9489110146        6.8783957251
 Cs        41.1581742179       35.9818771409       12.4054815354
 Cs        41.0582066570       35.8665593146       17.8539444341
 Cs        41.4495266637       36.0619934497       23.3717989331
 Cs        41.4405704265       35.5681853370       29.7862384970
 Cs        41.5350868814       36.5251935241       35.9812972707
 Cs        41.2381733635       36.2006202763       41.3671480019
 Br        33.3598678370       30.0155042455       26.8273744574
 Cs        41.2351763329       41.1558428647       12.0328562755
 Cs        41.4599659929       41.0211585855       17.9423953774
 Br        32.9212764753       24.0207821774       16.0098121941
 Cs        41.3853909065       41.3670173973       30.2362979462
 Cs        40.9693653351       41.6437569344       36.1420825526
 Br         6.1768815508       32.1106073485       33.0198807430
 Br        24.1181016577       40.1492631685       15.1646239628
 Br        24.0428629068       38.3927332047       21.0542489041
 Br        24.1240914848       38.5046471581       27.0410919904
 Br        24.0258830208       39.0229167730       32.5114457345
 Br        23.9937523695       39.7074775466       39.5382503270
 Br        12.0754861790        9.0619900314       14.9964670005
 Br        12.0543196456        8.8800766622       21.4643994849
 Br        11.9767678431        9.6411113508       26.7884617815
 Br        11.9434186918        9.6942258645       33.0294084052
 Br        12.1415694628        9.1944338347       38.4963522309
 Br        32.8862591375       35.7730012768        7.9235113391
 Br        12.1563903957       15.0692785030        8.2013138651
 Br        33.6298985824       35.8013210718       15.4018042259
 Br        30.0006787129        9.6136426861        9.2258931617
 Br        30.0247909709        9.7432269265       15.0724898483
 Br        30.0260508747        9.3451042311       21.3831745746
 Br        30.0102744943        8.5596808856       26.8585116488
 Br        29.9629634938        8.5837602787       32.9694489244
 Br        29.9549922796        9.3784933489       38.7261344684
 Br        33.4710585534       35.8669100966       20.7223413523
 Br        29.8540860251       14.8829957605        9.2488356423
 Br        29.9600361002       14.4625477265       15.3874937609
 Br        30.0870387961       15.1385718476       20.3382092420
 Br        29.9898785845       15.3490107871       27.2004178859
 Br        29.9820928643       15.4878298904       33.0784904372
 Br        29.8816862926       14.8987397472       38.4347541077
 Br        32.4676273290       36.0208936271       27.3788692037
 Br        29.8759501477       21.0430506083        8.9479509681
 Br        29.9603172259       21.2402569321       15.2535172846
 Br        29.9839229896       21.5537091445       21.1756418458
 Br        29.9667303693       20.6680867374       26.7455090789
 Br        29.9713372816       20.5156376875       33.1686241300
 Br        30.0249156313       20.8813693354       38.4344769153
 Br        33.1491535692       35.9300677831       32.2846088672
 Br        29.8507651545       27.0205173584        8.9009217031
 Br        29.9247681022       26.6600039881       15.5501872908
 Br        29.9055776955       26.8331921410       20.3502191228
 Br        29.8296112356       27.5706927506       27.3690466494
 Br        29.9480955871       27.4784755714       32.4446824087
 Br        30.0916230570       27.0109914296       39.7459009393
 Br        32.9007219442       35.9065735612       39.8376303584
 Br        29.8040926833       33.0180344702        9.2648495914
 Br        29.8677860923       33.6321985947       15.1292386778
 Br        30.0404470008       33.4707071182       21.1235662943
 Br        29.9983376227       32.5090270955       26.7972938172
 Br        29.9758879833       32.8403489195       33.1784455838
 Br        29.9429177296       33.1719097496       38.6727333408
 Br         6.1132662516       33.1731228199       39.0477420786
 Br        29.9607815532       38.4109666214        9.1857885489
 Br        12.0694235811       14.3971999221       15.5671481949
 Br        11.9677358512       15.3416339492       20.6025655022
 Br        12.0954210458       14.6525111901       27.0033431723
 Br        12.0336688027       14.4984018969       32.7752799578
 Br        12.1340205781       14.9559666141       39.1744671004
 Br        33.0727786699       41.7289800610        9.1469775151
 Br        12.1417220946       21.2952885503        9.1738023348
 Br        32.4588162486       41.7277238927       14.6636024866
 Pb         8.9428608895        9.0186004533        9.0240888964
 Pb         8.9430288713        9.0948513179       15.0791888449
 Pb         8.9875519409        8.7650990164       21.0506288503
 Pb         8.7847404757        9.1197104317       26.9101148101
 Pb         8.7459687753        9.4141313871       32.9296846459
 Pb         9.0465530517        9.0163445376       39.0142622773
 Br        32.6422294721       41.9103584879       20.7972045825
 Pb         9.1891296978       15.0663817857        8.8829478573
 Pb         9.0741041772       15.1169977211       14.9984932378
 Pb         8.7603622120       15.0669586036       21.0732474744
 Pb         8.9966741557       15.1271015081       26.9213484917
 Pb         8.8782716802       15.1429504763       32.9442068746
 Pb         9.0670137188       15.0687940953       39.0614123678
 Br        33.8874599210       42.0010995429       26.8058730310
 Pb         8.9415380582       21.0473405393        8.7142059629
 Pb         8.8521166663       21.1431664199       14.8434353112
 Pb         8.8103404946       20.8971695152       20.9770474679
 Pb         8.9900100830       21.0453293652       27.0527999627
 Pb         8.9507665139       21.2353583000       33.0607221424
 Pb         8.9392151487       21.0507991404       39.1903278212
 Br        32.7749314668       41.8777426634       33.3592872057
 Pb         8.9518143516       26.8919397159        8.7202082297
 Pb         8.8758322564       26.7955021009       14.8424560262
 Pb         8.8256007639       27.0836972337       20.9708575933
 Pb         9.0019070647       26.9609618041       27.0532992227
 Pb         9.0012876105       26.8162501722       33.0999281993
 Pb         8.9757894329       26.9601434664       39.3085476234
 Br        33.0012417622       41.8696066075       38.7013177334
 Pb         9.1804133812       32.8749128107        8.9078507433
 Pb         9.1055708681       32.8077919878       15.0132141222
 Pb         8.8063886789       32.9101106156       21.0637387648
 Pb         9.0118172692       32.8704083869       26.9070864316
 Pb         8.9641114775       32.8925418936       32.9462383328
 Pb         9.1329725203       32.9335902670       39.0770495918
 Br        23.8396133042       27.0092436802        9.7285989830
 Pb         8.9114402534       38.9166021902        9.0040745627
 Pb         8.9244402875       38.8559009741       15.0527670354
 Pb         8.9845576961       39.1975235656       21.0178356119
 Pb         8.8008584667       38.8958617508       26.8471151013
 Pb         8.7941853577       38.5990443971       32.8731393763
 Pb         9.0509958695       38.9908589595       38.9569076327
 Br        12.0267990789       21.5695604877       14.7441124151
 Br        11.9289513691       20.2993322619       21.1355005781
 Br        12.1229291067       21.4786863473       26.9432105982
 Br        12.2119771762       21.6933490751       33.1423334717
 Br        12.1322175527       21.2932549285       38.7862795157
 Br        38.6486027450        6.1438086240        9.4150084513
 Br        12.1532720755       26.6754169517        9.1842581545
 Br        39.4293716372        6.0805646608       15.0998798892
 Pb        15.0310439004        8.7263633317        9.3610683332
 Pb        15.0890937395        8.9077294745       15.0833376572
 Pb        15.0305870043        8.9621165774       21.1809557845
 Pb        14.9774001666        9.1263304555       26.9075156292
 Pb        14.9345624702        9.1488578990       32.9912187477
 Pb        15.1223297958        8.8442921492       38.7000864496