     800
 i =      281, E =     -8095.9594178192
 Cs        21.0194525731       21.2117167168       15.0956008451
 Cs        20.7384381627       15.2066655735       15.3701170464
 Cs        21.2815967811        9.5787682650       15.5628108820
 Cs        15.1720957660       14.7247446451       15.1197972411
 Br        11.6912526094        8.8580304191       12.2044223576
 Cs        21.1103501380       26.6764423774       15.1696608511
 Cs        21.4390938537       21.0477582447       20.7639097980
 Cs        21.1876481387       15.3647548417       20.7384562482
 Br        15.1917742245       17.6791848115       24.0923713620
 Cs         9.1544355885       14.9137525665       32.3116181740
 Cs        32.1648048574        9.2265067867       21.1235992920
 Cs        15.7000268226       26.7876643051       20.8962454073
 Cs        21.3281985557       32.2453652010       21.6462076035
 Cs        21.2042441101       26.5411934409       20.9849180778
 Cs        21.4474734246       21.1128709315       26.7940228623
 Cs        21.0185960943       15.0291243678       26.8068890965
 Cs        21.3670478129        8.9674648269       26.8569806814
 Cs        14.8076599859       27.8628631463       32.9415758628
 Cs        14.5400198978       21.3633441119        9.3078069700
 Cs        14.4537749224        9.2626494995       14.7042964036
 Cs        15.4871054701       20.8736221986       27.5017691626
 Br        18.6268122697       18.4172415430       21.1266928536
 Cs        21.5507097828       26.7315673984       27.0733473456
 Br        33.4428896577       12.0423885528       11.6092761302
 Cs        21.8792386263       14.5302074952       32.4635445076
 Br        18.0180687182       21.0348115588       24.6883975643
 Cs        32.9613564326       32.0417005038       15.0421972851
 Cs         9.2326123286       16.2607123211       27.3873050821
 Cs        14.7068750984       15.4064992668       27.1774508742
 Cs        14.8212175175       32.1004108148       14.8037812615
 Br         8.8665133809       11.7962469733       30.4177861449
 Br        11.9205845959       12.2418172618       27.2993464911
 Cs         9.9292744545       15.2839618653       14.6036506568
 Cs        14.9627822280       26.6769168072       14.9618545906
 Br        11.9290459847       15.1707820757       30.0142518419
 Cs        32.9296683824       27.4181911612       32.2112252307
 Br        15.2700529979       18.3003119366       18.8155175633
 Cs        32.7057829047       27.5691123081       21.4929083055
 Cs        10.3546125122       15.1631608201        8.9046885793
 Cs        32.5496960414       20.9603812511       27.4574569805
 Cs         9.6559714368       32.1253832220       14.8234636969
 Cs        33.0235258598        9.6219559229       27.3669481165
 Cs        26.4803018892       14.8024733185        9.6612555595
 Cs        27.8122629394        9.3808302787       27.3353958327
 Cs        14.6694912523        9.7561667466       21.8025328119
 Cs        27.5153709738        8.9014097650       10.3592204166
 Cs        33.0493417418       26.3233033071       14.4831673349
 Cs        32.4236810717       32.4272633908       27.1298933949
 Cs        32.3310112893       27.5078369687        9.2687844973
 Cs        20.9969292206       14.9124899010       10.1204170457
 Cs         9.6443829648       20.8612734016       15.0575516964
 Cs        27.0546527921       14.2092895116       32.9644606989
 Cs        32.5529943074       14.8695176078       27.2800802369
 Cs        21.0012080380        9.2637847710       31.7525745733
 Cs        20.7940263587       20.4071636755        9.7970127711
 Cs        21.3626801229       32.1951489538       27.2990463827
 Cs        21.8121658105       27.1141028018        9.6708282397
 Cs        27.1211755471       21.4813768793       15.2983810420
 Cs        26.8402806284       15.2695536273       15.2703446456
 Cs        15.0096802655       10.1616916046       27.0687934994
 Cs        10.2381043966       21.6389073647       27.5359943902
 Cs        27.3903011249       20.7431742455        9.4256588495
 Cs        26.8671300964       32.7914097227        9.3074802900
 Cs        22.1515973625       26.4941823945       33.1520913977
 Cs        15.6579779342       32.5602378555       27.0961300559
 Cs        27.5545358200       32.1875300541       15.3437420694
 Cs        27.1271326094       26.7928873880       14.6786475116
 Cs        27.0394387074       20.7961020546       21.2595933801
 Cs        27.2587560771       15.3609460523       21.5327357800
 Cs        26.7458781744       10.1906177442       21.0368110641
 Cs        26.5873693144       28.1990147237        8.9732899328
 Cs        15.2873729369       26.9509010997       26.8027044727
 Cs        15.6985442305       14.3749106915        9.3044630093
 Cs        26.7988316471       27.1486050919       20.6932265712
 Cs        26.9289753756       21.0214430776       26.9333202389
 Cs        27.2849982450       15.6214887870       27.1058670284
 Cs        14.4957008339       32.1736152617       20.9737468474
 Cs        32.4700768546       21.2817290457       20.5329053501
 Cs        15.6450632180       20.9430231899       21.5349185155
 Cs         9.8694564839       26.9107488399       27.6010117803
 Cs        14.9359438101       20.3168617795       33.0587538009
 Cs        26.4893078069       32.7716497668       27.7608887286
 Cs        27.3492420465       26.5281393826       27.1959794330
 Cs        27.1301295203       20.8727833472       32.4535552685
 Cs        28.0036471861       32.8389065489       21.0275451971
 Cs        32.5607909873       20.7616919796       15.0480510919
 Cs        32.9622130057       15.7164276919       15.2937277426
 Cs        27.0306710444        9.5080526005       32.9963333882
 Cs        33.2672132862       14.4444042990        9.1362734863
 Cs         8.3184645092       27.5653379456        9.6109890121
 Cs        13.9948178550       26.7956698670        9.4757689878
 Cs         9.3540847868       32.8845962664       21.0127629320
 Cs        14.9593757733       14.7863463128       32.5633525350
 Cs        14.0740074697        9.9933613321       33.5222046639
 Cs        27.1405060643       26.7165877923       33.0364967134
 Cs        33.0577203912       14.0729642151       21.7613945055
 Cs        10.1606166350       21.3808311532       21.5530931488
 Cs        14.3255213440       31.9744346548        9.3159617872
 Cs         9.7869283705       26.7733979029       21.7621584843
 Cs         9.2154419047       10.1785855067       14.9139187915
 Cs        10.0479996015       15.1257425050       20.9011047402
 Cs        15.5634997314       15.2308695799       21.2051043568
 Cs        10.0373436828        9.2004007794       27.6683830116
 Cs        32.5013353733       14.8254126687       32.4617695916
 Cs        32.8604339316       26.6310279952       27.1796780489
 Cs         8.6851678423       25.8266912453       15.5938090062
 Cs        15.1873994391       20.6384279584       15.3194735633
 Cs        21.2195219823       32.2056782590       32.6020431372
 Cs        32.9001755947        9.8924940997       14.5635228201
 Cs        14.2753321712        8.5865066972        9.8122546422
 Cs        20.2961447950       32.2467653530        9.3157698866
 Cs        21.3306022149        9.1721286994       10.1547695715
 Cs        20.0708463358       32.3743951924       14.4671986975
 Cs         9.6500034940       27.3254426409       32.2350964769
 Cs        14.8260283657       32.9104777071       33.2207193981
 Cs         8.8794870559       32.2838614210       27.6098591271
 Cs        27.2602226773       10.0387931730       15.2072396567
 Cs        32.5856615215       21.2805998824        9.6754273038
 Cs        28.3621841624       32.9141543118       33.5910931124
 Pb        24.3173077631       18.1032626595       17.9875121951
 Pb        24.1843589182       12.1118919426       18.2226052762
 Pb        12.0058443127       18.2309253407       24.3773767097
 Pb        17.9337533902       11.4128678950       18.2613910427
 Pb        24.1907264111       30.5291924234       17.9393876705
 Pb        24.2631698558       24.2395205973       17.8636043822
 Pb        24.2713432776       17.9884344202       24.2102776795
 Pb        24.1119672995       11.8791899604       24.2024249494
 Pb        18.2771279948       30.0589593105       24.2265060924
 Pb        24.3701316007       30.2301653822       24.1612161472
 Pb        24.4957786399       24.0970627667       24.0067961504
 Pb        24.3806004454       17.8591467365       30.3542969580
 Pb        24.3357986937       11.5265515474       29.9970682839
 Pb        18.3177171723       24.0999790941       24.1984702324
 Pb        24.1146376958       30.0007273368       30.4364104106
 Pb        24.4616004109       23.9125002623       30.2149125702
 Pb        18.3074162239       18.0273540577       30.5360382908
 Pb        11.4814486474       11.9890110761       24.2341059082
 Pb        11.9499068047       23.9168996647       18.1507525563
 Pb        18.0933808021       17.8956753571       11.9900574281
 Pb        17.8350820529       12.0699305069       24.3859935243
 Pb        17.9948539425       30.3696472590       18.1583821427
 Pb        18.1048386877       12.0774750739       30.2516942369
 Pb        12.2232950633       17.7922913608       18.1234929698
 Pb        11.9092075829       11.7848242381       18.1736082560
 Pb        18.1407961207       24.1467860290       17.9003937611
 Pb        11.7857684203       11.9304534740       30.3948350671
 Pb        12.1365815665       17.9334450172       11.6998703546
 Pb        30.3945935944       18.2378890601       11.7653401047
 Pb        30.4966201185       12.1666769127       11.6106189822
 Pb        18.0828624152       11.5220449042       12.1059407500
 Pb        11.2273178443       30.0424764143       11.7309624586
 Pb        24.2022881952       18.0203983642       11.9600564943
 Pb        24.2468328994       11.9201149868       12.0792637401
 Pb        18.1644556238       23.8841390035       11.4375625867
 Pb        23.9368247451       30.7611385884       11.8965046179
 Pb        24.2543476979       24.1190951051       11.5423891408
 Pb        30.3199960672       18.0196443253       18.0718281352
 Pb        30.6177175235       12.1410254468       17.8609234579
 Pb        11.7111548026       18.0842013415       30.8514564826
 Pb        30.2080180101       30.1020222329       11.7349076381
 Pb        11.7294549661       23.6723516623       11.9506933658
 Pb        18.2020303662       30.0969448084       30.3385130344
 Pb        30.3611904154       29.9692452179       17.9912542244
 Pb        30.4853828087       24.1377077264       17.9386343177
 Pb        30.7860960933       17.9739035447       24.0660346597
 Pb        30.2030849148       11.6419044657       24.1119729730
 Pb        30.0228873029       24.1811154572       11.6392996375
 Pb        18.3056071156       23.9554007013       30.4120891757
 Pb        30.2543996163       30.1732448352       24.2134299436
 Pb        30.5563390834       24.0859549109       24.1373756563
 Pb        30.3407500700       18.0655165262       30.3895832512
 Pb        30.3551448143       12.0184513653       30.2960511098
 Pb        30.3083821302       30.2921653676       30.1069964498
 Pb        30.5951555459       24.2207224743       30.6508839488
 Pb        12.4168399206       24.1650746803       30.6508896139
 Pb        18.2005652579       17.9393002851       24.2970018831
 Pb        12.1101249595       30.4065726244       24.2237980933
 Pb        11.6025917214       29.7610079904       17.9229898933
 Pb        11.6853071820       11.7187907335       11.6345717214
 Pb        17.4709071150       29.7130487732       11.5936722243
 Pb        12.3391320615       24.1753445961       24.3359058361
 Pb        11.9218733577       30.2462838789       30.2414626614
 Pb        18.1186665734       18.0442471602       18.1301562875
 Br        21.2612637225       18.3415822146       17.7355399913
 Br        24.8423680983       18.5161900672       15.0289550809
 Br        24.6988744142       21.1284896908       18.3328169806
 Br        21.1748413388       12.0065121265       18.3962871968
 Br        24.2193168433       11.8998075451       15.1622216779
 Br        23.7705610893       15.1252952597       17.5931517021
 Br        17.5594056902       17.6204330061       15.1025234632
 Br        12.2414587393       18.4478415382       27.4994279994
 Br        18.0826694770       21.1242027325       17.5799018336
 Br        15.0414591298       10.6514240655       18.2015252659
 Br         9.2498172055       19.1957760803       24.6458026407
 Br        11.9926758152       18.2133908218       21.3202929563
 Br        33.1893767767       11.0894643153       24.0079846646
 Br        20.9997427150       31.2687764033       18.0326798702
 Br        23.8866559556       31.5349477734       14.9104346408
 Br        25.3445794151       33.1129785858       18.3775752020
 Br        21.2511718685       23.7603178148       17.9514461380
 Br        24.0926321660       23.9333544938       14.8523500400
 Br        23.6370206176       27.1690069153       17.8270821299
 Br        21.2573129451       18.0343880931       24.4697341334
 Br        24.1236883281       17.8092136072       21.0776274559
 Br        24.0602468315       21.0463983819       23.7967359656
 Br        21.1159176504       11.9139202187       24.5698567613
 Br        24.3020761103       12.8490580603       21.2058714421
 Br        24.4240258639       15.0056273729       24.7479200292
 Br        14.4938007577       29.5825992155       11.8835474617
 Br        17.3015813418       30.6242857248        8.1804530538
 Br        23.9921497645        9.0917617657       23.2707324593
 Br        17.2629624501       32.6609970901       11.6945041750
 Br        12.8532219742       21.1951582264       24.2321823155
 Br        17.7937932204       11.4054597662       15.1944372110
 Br        15.2188962914       30.0890677214       24.1606558762
 Br        18.0500793841       30.4704745221       21.0701337426
 Br        18.7144686973       32.9467653052       24.5866171302
 Br        21.3044038038       29.6812032401       24.3290141550
 Br        24.1459044646       29.9866921173       21.0079878717
 Br        21.3560035094       24.2078124829       24.2181256135
 Br        24.2602419334       24.3242733709       20.9600108322
 Br        25.0680989399       27.0881190918       24.1507982225
 Br        21.4277202234       17.7683604885       30.8170037827
 Br        24.2586518043       18.3530113742       27.1597164843
 Br        24.0583542818       20.8667020522       30.2274168452
 Br        21.1756818029       12.0900587778       29.5982168946
 Br        24.4545572625       10.8159995973       27.0377417851
 Br        24.5757232786       14.6836870210       29.9104331498
 Br        12.4459962449       24.2330004952       21.2516452644
 Br        11.9887792112       27.2131275973       24.6754831237
 Br        11.8418785236       21.1489013133       31.0396123231
 Br        18.1649537321       15.0228513341       18.3166581751
 Br        15.2990805042       24.5493935513       23.9417272090
 Br        18.3534536807       23.6835437984       21.0813880610
 Br        18.3669882420       27.0349012778       23.5400647615
 Br        21.0561487327       29.3903107552       30.1574880471
 Br        24.3160307476       29.8492825147       27.2381412924
 Br        23.6894947925       32.9056546132       30.2190438971
 Br        21.4123789474       24.3854125228       30.1351476053
 Br        24.4085112459       23.9247797572       27.0335650321
 Br        24.7257929259       26.9236868598       30.2170551467
 Br        15.2820481520       17.9346500127       30.3931611163
 Br        18.0455271966       17.4666381681       27.2187587602
 Br        18.7833138777       21.0318271321       29.6312252912
 Br        23.8576380921       11.3696906776       32.9914807337
 Br         9.0842780595       23.2952111266       18.3945750347
 Br        12.7514737380       17.6153234142       15.1323553859
 Br        12.2755739284       20.9467733674       17.9144273797
 Br        24.6330658792       23.7523585219       33.1339043888
 Br        15.0025403260       29.7194272915       18.1879515683
 Br        17.6408262863       29.3986005913       14.5476571190
 Br        15.1542739038       24.5074521881       17.9687051954
 Br        18.1753395521       24.5039069602       14.9337155662
 Br        15.3214145245       18.0613345062       11.0213879253
 Br        18.2020086565       20.8387119592       12.5440629019
 Br        15.0024891852       11.9261407272       30.2057196508
 Br        17.7071243013       12.9123382163       27.2988201772
 Br        18.3534092359       15.0193492764       31.2600839696
 Br        12.1618240724       12.2040461173       21.2228903688
 Br        11.1683924624       15.2921644623       24.4226720168
 Br        11.9086900383       12.7884747024       33.3346263609
 Br        33.1870170631       30.4045711917       18.2846975086
 Br        33.3758065739       24.7163636303       23.9959738305
 Br        12.3302237477       25.1336990514       33.4027825019
 Br         9.2959938159       17.4061568729       11.7427804087
 Br        33.2495101511       17.4203872784       30.1282639140
 Br        14.9781460796       12.6876972567       24.2428742672
 Br        27.2937608047       17.7347269512       11.4874540799
 Br        30.0741496995       21.1408843704       12.3121387438
 Br        17.7364282414       11.6553214800       21.3171209237
 Br        18.5769140448       15.0068721264       23.6059057738
 Br        27.2863901645       12.1166840593       12.1218707437
 Br        15.0699019565       11.5210350139       11.6668716591
 Br        31.1465665938       15.2676149920       11.8859902057
 Br        18.2190653124        9.1520919154       29.3876629556
 Br        11.8780999663       24.1801448446       15.1700346314
 Br         8.3531115481       29.9641445575       12.1502367000
 Br        11.3811173951       29.5457791624        8.8518023556
 Br        33.0952669717       29.6994956180       29.4017795870
 Br        21.2156959946       17.9177375921       12.5976717683
 Br        23.6823951882       17.3286068559        9.1362257212
 Br        24.1641268928       20.9763896232       11.1660936083
 Br        21.1672745321       11.9124159865       12.4164231219
 Br        24.1739113964       15.0001227907       12.5160337704
 Br        10.8805939207       26.8400623744       18.3001309301
 Br        24.3337188708        8.9338432127       12.1811164388
 Br        17.9864470629       14.7004564305       12.2862958063
 Br        15.0536734422       24.2407510322       11.6889309456
 Br        18.6357746837       27.1791744108       18.3480053708
 Br        20.8201502880       29.8865788621       11.9627630230
 Br        23.7472680053       30.6022761758        8.9166590254
 Br        21.1869740927       23.7452468344       11.7815878848
 Br        24.4200600685       27.1393850162       12.0962498030
 Br        27.2641583132       17.3691966714       18.3498193347
 Br        30.0739709326       17.8694692255       14.9400621915
 Br        29.7930827918       21.0234744661       17.9279693113
 Br        27.3534394628       12.3658972179       18.0016359122
 Br        30.2102470669       12.4196546272       14.9525583003
 Br        31.3141480580       15.0284570926       18.4388338806
 Br        30.4956935089        9.0043901012       17.7017975313
 Br        17.9980785170       30.7586828666       33.2813659866
 Br        26.9679476448       30.4442920311       12.0306867587
 Br        27.0023640578       29.4493450014       17.5596121752
 Br        30.3767618872       29.5522835315       14.8513908535
 Br        27.3027603156       24.7150794752       17.7868746385
 Br        30.1384933032       24.2693535649       14.8809340819
 Br        31.5790716141       26.8969093266       17.9694893464
 Br        27.3749747260       18.1989380321       24.1597737030
 Br        30.1978334301       18.3361823611       21.0566847064
 Br        31.2805871228       20.9533516655       24.0610761393
 Br        27.1937006789       11.6658686140       24.3188949099
 Br        29.9348447829       11.9759092034       21.1200823200
 Br        30.1798565293       14.8471871059       24.0982342343
 Br        30.4386484647       33.0346632516       11.8006198022
 Br        27.1076994652       23.6439844275       12.1598120384
 Br        11.9775324955       18.4536670691        8.8637002511
 Br        14.8722470087       30.7266307075       30.3673016227
 Br        18.0497070646       29.6869666544       27.2357991988
 Br        27.1471616477       31.2477694582       24.1751796847
 Br        29.7302253845       29.6331847025       21.0021027057
 Br        30.6943104453       33.0346878018       23.9660054687
 Br        27.3896291520       23.4055404295       24.0740146873
 Br        30.3482250802       24.2216547726       21.0140238285
 Br        30.0012510868       26.9716591065       24.4932467622
 Br        27.3478637879       18.4888213367       29.6980764515
 Br        30.5346048885       18.0228412030       27.0665126866
 Br        30.9139275292       21.1240925168       30.8997977800
 Br        27.2663094911       11.7845898613       30.2048591935
 Br        30.3444644936       11.9934880922       27.1695811771
 Br        29.7964989920       15.0768899856       29.9862317614
 Br        29.4147742466       27.0734704737       11.3678291546
 Br        12.1963687213       30.9561624234       27.2337761425
 Br        30.4374625745        9.0273367801       30.4412506047
 Br        33.2204026161       18.6292342077       17.9698600512
 Br        12.5073569652       20.8842081744       12.5838361685
 Br        10.9366369912       32.9455300590       30.8444953155
 Br        15.4520016252       23.1866880790       30.7758702140
 Br        18.2462824399       24.6852547263       27.1696321320
 Br        17.8242136785       27.0475240893       31.0968115952
 Br        27.0428157490       30.6215926222       31.0617249713
 Br        29.4528028020       30.3053082153       27.1484753595
 Br        27.4549248030       23.6277587852       30.0851159507
 Br        30.4692772259       23.8547029147       27.2557567308
 Br        29.8632111371       27.1070023463       30.0979369609
 Br         9.1978841467       12.8625946800       17.9207911753
 Br        12.1748294702       12.2022440381       14.9987003227
 Br        29.6300090169       17.5575040369       33.1866869703
 Br        12.9577450621       14.9128652344       18.3825651582
 Br         9.5190864265       24.4069349118       30.2022370895
 Br        12.9414489319       23.9802281475       27.3678069612
 Br        12.7031458165       27.2065134634       29.8880890795
 Br         9.1738374670       31.0720982588       24.3054423187
 Br        30.9654386783       30.4558483945       33.0748444505
 Br        11.6932156026       29.9177708135       21.1945827857
 Br        33.0449072150       24.5794765904       11.2147493313
 Br        12.3102918132        9.1695921122       24.6288570531
 Br        12.5782033690       14.9018087133       11.6337124283
 Br        11.0105850084       26.8006580585       11.7536831981
 Br        12.0102027383       29.4394045851       14.9990207564
 Br        11.8534760482       32.8044596012       17.8125211060
 Br        18.5216912067       11.3266184571        9.1038829888
 Br        30.1319107149       12.7787843474        8.7916582043
 Br        18.0086815540       22.6108075219        8.8689900416
 Br        29.7164915514       23.6316338588        8.7634990419
 Br        18.7935131278        8.7291439074       18.4641190822
 Cs        20.6716334084        9.5081489093       21.7560892814
 Cs        21.1830392909       21.4334106485       32.5718704218
 Br        18.2720669008       18.8997883894       33.2722256058
  C        35.5410179259       18.7166798173       11.4566232607
  P        34.0401252870       18.0322472102       12.2098018864
  O        34.1219024219       18.0497455804       13.7105274780
  O        32.8151807636       18.7100534789       11.5645903558
  O        34.1249608348       16.4844285627       11.6439936633
  H        33.2525268937       16.0420883111       11.8244053783
  H        35.6501272590       19.7624290523       11.7714245579
  H        35.4967752294       18.6656016816       10.3620495934
  H        36.4162478218       18.1581096687       11.8106944311
  C        11.2149740105       16.5686483750       35.5761081437
  P        11.6340031427       17.8108949935       34.3205901646
  O        13.1274504270       17.9746799592       34.2014630121
  O        10.8303138565       17.4674538898       33.0530360655
  O        10.9143384431       19.1905384216       34.8649582680
  H        11.5287837941       19.6974091698       35.4224130868
  H        11.5397730963       15.5774495499       35.2300816884
  H        10.1338434847       16.5558781408       35.7615607941
  H        11.7320050018       16.7984761477       36.5161775078
  C         7.1949931625       30.9946139667       31.0987750624
  P         7.5048651416       29.7344512196       29.8190675698
  O         6.9824493542       30.1904113926       28.4760207612
  O         8.9568579167       29.2794181369       29.9435118791
  O         6.5741924561       28.4633163965       30.3519818148
  H         5.7700561773       28.4266767341       29.8058681468
  H         7.9065024879       31.8248160631       30.9870737900
  H         7.3381102544       30.5679942241       32.0999417374
  H         6.1695226356       31.3754659170       31.0204833086
  C        24.3060988104        7.0299569701       19.1666220836
  P        24.5298387538        8.3436903758       17.9299997061
  O        23.5388138626        8.2118970348       16.8191238407
  O        24.6962523934        9.6704825922       18.6964146759
  O        26.0069090689        7.9607991533       17.2346149989
  H        26.7263910117        8.0296515152       17.8876175418
  H        23.3371639385        7.1782106265       19.6602944419
  H        25.0858495313        7.0448385474       19.9389781296
  H        24.3057210742        6.0546016568       18.6657479742
  C        35.4943836215       17.5075304110       25.3800687733
  P        34.2947025612       16.8118753126       24.2076488080
  O        33.8813749544       15.4244117046       24.6087984920
  O        33.2193477457       17.8807428373       23.9501614455
  O        35.1799805984       16.6546435947       22.8071382501
  H        35.0994021124       17.4695870541       22.2806014157
  H        35.0181828986       17.6219767137       26.3635000047
  H        35.8428244097       18.4908727799       25.0407710059
  H        36.3526127344       16.8315851978       25.4773991905
  C        17.4870286150       26.2344119047        7.8884234098
  P        18.0021596857       26.9289687565        9.4791877708
  O        16.8068489058       27.5559740646       10.1808764464
  O        18.8602383783       25.9270449879       10.2509957468
  O        19.0352046904       28.1343131686        9.0935936608
  H        18.5271318509       28.8957142207        8.6802934541
  H        16.8288838172       25.3699057179        8.0471211420
  H        18.3655641258       25.8739384335        7.3391560856
  H        16.9784596462       27.0049225686        7.2940079317
  C        23.3907003914       35.3136481265       24.1833172961
  P        24.1729849911       33.8601962454       24.9326703934
  O        23.8613219932       33.7873291976       26.4064044896
  O        23.8581251119       32.6412923637       24.0377908660
  O        25.7705667514       34.2033547136       24.7679499926
  H        26.2430370196       33.4179796431       24.3984300952
  H        22.3007015036       35.2290505201       24.2835487406
  H        23.6590934950       35.3965157435       23.1232255648
  H        23.7201323784       36.2176544910       24.7104246683
  C         7.3451260209       23.0283993100       24.5386103920
  P         8.7041998203       24.2072651072       24.7850383269
  O         9.1060693940       24.2727891042       26.2394264075
  O         9.7639214483       23.9565006871       23.7114330391
  O         8.0390537601       25.6752738812       24.3548356181
  H         7.3816770209       25.9570826893       25.0138847089
  H         7.7204983522       22.0052310920       24.6873126030
  H         6.9453105155       23.1132079896       23.5204817603
  H         6.5378523898       23.2122170987       25.2589091942
  C        24.2306700982        6.8714823864       31.7382865813
  P        24.3292049519        7.8695471947       30.2085787424
  O        22.9594613434        8.0451065928       29.6157333520
  O        25.1818915978        9.1047800974       30.5141379263
  O        25.1834682574        6.8885461541       29.1971274606
  H        26.1110430743        6.8359533797       29.4837796030
  H        23.7823550208        7.4696352667       32.5432964990
  H        25.2263975233        6.5469945602       32.0699677553
  H        23.6190848778        5.9776227263       31.5633025955
  C        24.0462378510       17.9489959343       35.3089116517
  P        24.8737938544       17.1458100109       33.9120869815
  O        24.3549807230       15.7480567308       33.7089157870
  O        24.8668030047       18.1317413506       32.7277670222
  O        26.4225477602       16.9848578008       34.4521548823
  H        27.1033660595       17.4792765521       33.9481881807
  H        22.9773425415       18.0458105523       35.0780374601
  H        24.4651355269       18.9456349975       35.4932632064
  H        24.1630915103       17.3352235569       36.2102670605
  C        16.9136842414        7.0918244202       23.9146064950
  P        17.8523599927        8.3529653279       24.8223518925