     710
 i =      116, E =     -5683.3185121580
 Cs        21.1989672942       20.7777931899       14.9551870829
 Cs        20.6992826259       14.9774623465       15.3045020234
 Cs        15.3836489197       14.7648455987       15.3211635244
 Br        11.8825330706        8.7693884355       12.5952735815
 Br        33.0110192164       18.1068947781       12.5057688297
 Cs        21.1951210221       26.2975562733       15.2934762855
 Cs        21.3266711041       20.9067290792       20.8184670817
 Cs        21.0577385787       14.9331284803       20.5838251013
 Br        15.1898104844       16.9058843129       23.8556824677
 Cs        32.0476506911        9.3360434457       21.0590823348
 Cs        15.9923195284       26.6703362512       21.0556058480
 Cs        21.2557604703       26.8174447246       21.4103619020
 Cs        21.6105672134       20.9663767081       27.3184988425
 Cs        20.8514994074       15.1282397550       27.0137745658
 Cs        15.1464346797       21.2021972281        9.7355951903
 Cs        14.9370887213        9.1782313746       14.8393111870
 Cs        15.4214554919       20.6984452952       27.0752088857
 Br        18.9824509690       17.9580031443       21.1287082440
 Cs        20.7509406354       26.6458178786       27.0188739287
 Br        33.0359104693       11.0502468056       11.8131369745
 Br        17.5018811073       20.6462541510       24.0726263347
 Br        11.3074146168       18.1159069686       33.1713454389
 Cs        32.1801463168       32.0563514677       14.9681247620
 Cs         9.8342783832       15.4009740595       27.2890000793
 Cs        15.0644490807       14.8677794736       27.0380248310
 Br         8.9683831777       12.8124546111       30.3247421773
 Br        11.8998228536       12.2827371728       27.1356400611
 Cs        10.2895005005       14.9991289495       15.3924529983
 Cs        15.1449080049       26.6815433157       15.2495376609
 Br        12.2814882300       15.0221163971       30.3163914502
 Cs        32.9241699881       27.0065860886       31.9675317980
 Br         9.2882317530       29.3369316332       29.2453502719
 Br        15.3342203634       17.8031962474       19.4158026203
 Cs        32.3075593025       26.8191358718       21.6087096066
 Cs         9.4571949253       14.9326135683       10.2466816446
 Cs        10.0985828996       32.2725720089       15.4286360885
 Cs        27.2143445458        9.4100317928       26.6411055627
 Cs        32.5764828885       32.0573399104       26.8950494135
 Cs        31.9847519565       26.9073827605        9.4673956289
 Cs        21.0844248100       14.8572327953       10.0884734601
 Cs        10.0287747906       20.5564768595       15.3304274105
 Cs        26.8996894863       14.7234623753       32.1284411520
 Cs        32.4138573334       14.8956812185       27.0307422057
 Cs        21.3857692356        9.6241822333       32.9319973532
 Cs        21.3174290301       32.0802134725       27.0628945913
 Cs        21.3344371679       26.4024746539        9.5190202347
 Cs        27.0336979482       21.2258498430       15.3529129243
 Cs        26.9805930641       15.3641188749       15.0960348861
 Cs        14.9306441771        9.7239382841       27.0797621216
 Cs        10.2841033707       20.9304157212       27.1507222077
 Cs        27.0821501357       20.7471334567        9.6437881864
 Cs        27.0979294318       32.1778026013        9.8176254494
 Cs        21.2732068386       26.8675285240       32.4306293160
 Cs        26.8544855818       26.7367775655       14.9556369822
 Cs        27.1278077528       20.3939388514       21.0843585575
 Cs        26.8221214022       14.9787473503       21.3833667856
 Cs        15.1855736545       26.7047157726       26.8056710370
 Cs        26.6626932969       26.5729591611       21.0860359496
 Cs        27.4497370382       20.7180925901       26.6931674461
 Cs        27.0966389404       15.2439273247       26.7978653689
 Cs        15.1312287269       31.7735795084       20.9512432035
 Cs        15.3001118538       21.2898159591       21.0185312687
 Cs        15.8720608332       20.9473850626       32.8472242480
 Cs        26.9127962239       26.7216617202       27.0712468547
 Cs        27.2430553548       20.2154322956       32.4970179825
 Cs        27.0238266531       32.1138043261       20.4431482238
 Cs        32.2899721573       20.8675494463       15.0644933666
 Cs        15.1338031899       14.4149065183       32.6844754332
 Cs        32.5060242749       14.8307391766       21.1872635705
 Cs         9.6534667603       21.0396722008       21.6812032830
 Cs        14.8991318609       32.3892540119       10.1468486248
 Cs         9.7377125529       26.6416066002       21.9688927832
 Cs        15.6145331927       14.5606281230       21.1216559541
 Cs        32.0098478056       26.9139905687       26.9217559898
 Cs        15.3613631750       21.1869537917       15.2010963719
 Cs         9.7963041370        9.4515986691       20.9261394553
 Cs        32.2256041220        9.0705386212       14.6161725043
 Cs        13.3009532821        8.9288895923        9.3633581331
 Cs        20.8258593705       31.9935813920       14.7733908886
 Cs         9.9610770225       32.0899399104       26.9596817562
 Cs        27.4209700583        9.7921161280       15.2961279954
 Pb        24.1585579848       17.8663010921       18.0278633078
 Pb        24.2789974772       12.0290795729       18.0130471353
 Pb        12.2010093500       17.8348406849       24.1475952382
 Pb        18.1458354394       11.4608708821       17.9664432991
 Pb        23.9845359718       29.8227480648       17.9627155840
 Pb        24.1071527385       23.8560696248       18.1358136379
 Pb        23.9916334982       17.8409121923       24.1225607266
 Pb        23.9542312063       11.7499388322       24.1071653763
 Pb        18.2055632729       29.7438850892       24.3185459344
 Pb        24.2643214620       30.0437935902       24.1281382993
 Pb        24.2638873471       23.7224483981       24.1766364151
 Pb        24.1050470480       17.7698079734       30.0057245693
 Pb        24.0794873749       11.4725564458       30.0455585031
 Pb        18.2133117503       23.6650787799       24.2108787533
 Pb        24.2146769874       30.0189853841       30.3483118892
 Pb        24.2183835466       23.8380994324       30.4010613541
 Pb        18.1343089532       17.8127715976       30.3118760238
 Pb        11.9350075408       11.8696296475       24.1748307178
 Pb        11.8377911906       23.7989792315       18.2444137664
 Pb        17.9367480987       17.8384834815       12.1186567237
 Pb        18.0713164406       11.7442436049       24.1015984083
 Pb        18.1888310893       29.8725426347       18.1441719159
 Pb        17.9872717226       11.7049054904       30.2250487322
 Pb        12.5107001110       17.8941942731       18.1728312856
 Pb        12.3887330774       11.5325629018       18.1137674792
 Pb        18.1915105758       23.8986597900       18.0866241240
 Pb        11.8293706116       11.9204675956       30.3595434494
 Pb        12.2056107096       17.8244290152       12.1257528268
 Pb        30.1712945947       17.8486356539       11.8323007556
 Pb        30.2590137548       11.6106667030       11.6311686758
 Pb        18.0200010963       11.5278351759       11.8682565459
 Pb        11.6200394884       29.9239806287       11.9912503290
 Pb        23.9350690773       17.8136464275       12.1257347701
 Pb        23.9919538142       11.8431342496       12.2025333423
 Pb        18.0236851217       23.9211802247       11.8638645504
 Pb        24.0157858885       29.7892193574       11.9351353632
 Pb        24.0287572433       23.7263016476       11.9240317098
 Pb        30.2209149357       17.9676699642       17.9348909425
 Pb        30.4083059186       12.0290393799       17.9087737351
 Pb        12.2971713515       18.0172083927       30.3741838620
 Pb        29.9656238391       29.8256551085       11.9485359456
 Pb        11.7470194947       23.7140427942       12.0067920724
 Pb        18.3190586216       29.9933530789       30.2775748084
 Pb        30.0997913854       29.7592865973       17.9952188732
 Pb        30.3181755106       23.9773531515       18.0032942687
 Pb        30.4309161133       17.8759664097       24.0875054761
 Pb        29.9636105830       11.8317463650       23.9302882257
 Pb        29.9442382769       23.9256110662       11.8327105247
 Pb        18.2330765409       23.8331337205       30.2923203961
 Pb        29.8331876778       30.0985931985       24.0320026538
 Pb        30.0951556305       23.9069403815       24.1217847632
 Pb        30.2848370780       17.6645623991       30.1649106745
 Pb        30.2519142295       11.6410541692       29.8619793258
 Pb        30.3954956886       30.2218117255       30.3384313633
 Pb        30.1754603584       23.9520720503       30.3235237807
 Pb        12.4513355704       24.0017954047       30.4671717144
 Pb        18.1368172996       17.7002035075       24.0982063414
 Pb        12.3713190848       29.8330077281       24.2299176482
 Pb        12.0396306779       29.4261296063       18.2193030246
 Pb        11.8548585593       11.7644031923       12.0889627231
 Pb        17.9102175453       29.6591289250       11.7496815840
 Pb        12.3342311776       23.8182344470       24.3671302576
 Pb        12.3066543788       30.1521873977       30.1748554741
 Pb        18.0537594278       17.8819438824       18.2336450903
 Br        21.0951176420       18.0591137629       17.6137063280
 Br        24.5015740119       18.5850866578       15.1059491199
 Br        24.5782595184       20.8571641147       18.5179891648
 Br        21.1189708619       12.0886138327       17.9495256479
 Br        24.0539317439       11.0054521488       15.2105512344
 Br        23.8220508175       14.9770778880       17.2665092144
 Br        17.3985396319       17.7913836312       15.2155557894
 Br        12.7109529589       17.8015041466       27.1889904132
 Br        17.7239047958       20.8461736934       18.0310541971
 Br        24.6475462202        9.1114583959       18.5849436469
 Br        33.2134454772       17.1544294937       24.1177105244
 Br        15.2527767172       10.4907180506       18.2413971020
 Br         9.3653258291       18.3946297581       24.6481749069
 Br        11.6824025657       18.1504837570       21.1464720823
 Br        32.9530614458       11.6899049858       23.8844614325
 Br        21.1095978776       30.8152893906       18.1954993772
 Br        23.4631486520       29.5196062089       14.9804742035
 Br        24.6152834802       32.7155820120       17.7213855848
 Br        21.1286161367       23.1882975289       17.7162043017
 Br        24.1016908305       23.6510083797       15.0400800781
 Br        23.4209402688       26.7826890224       18.1491642338
 Br        21.0434290621       18.1793704920       24.8544189254
 Br        23.8125146641       17.3115058296       21.0523278244
 Br        24.0133177822       20.7451623926       23.4476244409
 Br        20.9570662612       10.8321515358       23.8987127389
 Br        23.9465965382       12.4514054261       21.1094461813
 Br        23.8498777773       14.8214397548       24.8134010935
 Br        14.9938742284       29.3718355684       12.2643217426
 Br        17.6995486939       30.3963404822        8.9813597979
 Br        24.5882088940        8.9448847140       23.4635607307
 Br        18.1976709903       32.7532166564       12.1588073996
 Br        17.8998229086       26.7365142786       10.7841069032
 Br        12.8082219135       20.7845375320       24.1246722856
 Br        17.5625630468       11.6438949618       15.0056330512
 Br        15.2720823450       29.2341898615       23.7273317084
 Br        18.4611323796       29.8055878851       21.2107182887
 Br        18.0954749094       32.6577352678       24.7103674678
 Br        21.2494165989       29.3911100979       24.4167338431
 Br        24.1151068271       29.7552808300       21.0224876944
 Br        23.2874307044       32.7744312158       23.9157056096
 Br        21.2063782657       23.6521698554       24.7483569976
 Br        23.6932701630       24.0751527313       21.1030325241
 Br        24.5522297476       26.7652439529       24.1812465887
 Br        21.0663786697       17.8048051241       29.6277479022
 Br        24.4825278650       18.4852257845       27.0130215671
 Br        23.8785073074       20.7266190123       30.6577381038
 Br        21.0243869431       11.6310058587       30.1260149123
 Br        23.8271372926       10.7865280674       27.0572464655
 Br        23.8932977354       14.6914932139       29.6681939133
 Br         9.3447477129       23.4793068810       24.4281484231
 Br        12.0275911437       23.8239074845       21.2445651919
 Br        24.0244594483        8.6263568235       30.6717633475
 Br        11.8613170290       26.7823814623       24.9788368521
 Br        12.8512628117       20.9494742353       30.1530899075
 Br        17.9601591050       14.7094907927       18.1263600364
 Br        15.2730666034       24.2280439752       23.6767147892
 Br        18.5383059090       23.6217100813       21.0960560119
 Br        18.4624022730       26.6283612295       23.9729991008
 Br        21.2031095395       29.3651353081       29.6206615482
 Br        24.5839168465       29.9650812307       27.0869294256
 Br        23.5189098210       32.8357950509       29.9804734595
 Br        21.2204047774       24.0219876750       29.6144280120
 Br        24.8268481460       23.3817930929       27.0887502747
 Br        24.5679275066       26.8061600062       30.0557642909
 Br        15.1949335279       17.7324260866       31.3060058064
 Br        24.1439226304       17.2871528246       32.9627588977
 Br        17.6656076733       17.3760777639       27.1402668641
 Br        17.9938225030       20.7868704443       29.7809659751
 Br        24.4917297742       11.7654760054       33.0884384195
 Br         9.1965215290       22.6970974425       18.3101178378
 Br        17.2826996562        8.8771400920       24.4215560337
 Br         9.5921186980       17.6844098827       17.7228454228
 Br        23.5810453752       29.7778166738       33.1714972391
 Br        13.0055919216       17.6511652016       15.1947899451
 Br        12.8440714879       20.8558446394       17.9406674377
 Br        23.6540040117       24.1653636494       33.1588885442
 Br        15.2252821068       29.0135582867       18.2564351421
 Br        17.9334680826       29.6787065900       15.0947115150
 Br        17.5402054641       32.6817595889       18.3348435065
 Br        15.1688346499       24.3299836590       18.2687512172
 Br         9.0048430217       11.1649841800       24.0147170296
 Br        17.9285532651       24.2612191606       15.0292381859
 Br        15.0992409576       17.7849140545       10.9232393731
 Br        18.7694036234       17.7331157665        9.2749199471
 Br        17.9138874274       20.8571006585       12.4081955711
 Br        18.9282373705       23.3555218222       33.0888802687
 Br        15.0316404269       12.2031479121       29.8194938318
 Br        18.2719155081       12.1822602806       27.1100798617
 Br        18.3724630941       14.8141540518       30.9353894767
 Br        12.5560090304       11.6362987052       21.1756903505
 Br        11.2480128832       14.8329646437       23.8890395986
 Br        11.9387430382       29.6619941730       33.0519808112
 Br        32.9313065663       29.5104509336       24.0435925947
 Br        12.6590568131       11.6514444302       33.1781342244
 Br        32.9412571634       30.6908633239       18.2722122344
 Br        32.9488166074       24.5008425149       24.3835388830
 Br        11.8277920203       23.6394013126       33.2781717173
 Br         9.3425818951       17.5655872648       12.8729222370
 Br        33.0914898410       16.8303613219       30.1648197966
 Br        15.0452196190       12.3548177538       24.2570181188
 Br        26.9572538146       17.8421268789       11.9182294008
 Br        30.0593618020       18.5260029803        8.9283211285
 Br        33.1363405876       11.9351270429       29.3571293708
 Br        29.9337815316       20.9354758486       12.2957760315
 Br        12.1618585863        9.0556834043       29.6324715775
 Br        18.0235172754       11.3977941057       21.0400972564
 Br        18.8401301833       14.6965439436       23.6604073621
 Br        26.9063874359       12.2420227213       12.3252105879
 Br        14.9090512981       11.3911395368       11.2368846320
 Br        29.9445137654       14.8986909298       12.0108773510
 Br        17.4684445579        8.8668430972       29.7352279224
 Br        12.1049557108       24.0295675735       15.1533159284
 Br         8.9093629587       30.4980539483       12.6075020359
 Br        12.1242240433       30.4009736414        9.2144930509
 Br        12.6572863105       32.6029628417       12.9485370917
 Br        33.1384482821       29.4783722825       29.3132507653
 Br        20.9064669204       17.7383847519       12.7363107909
 Br        23.8835844531       17.0545224946        9.2697207905
 Br        23.5226122748       20.7600650579       11.3606655347
 Br        20.8606550227       11.8952780711       12.6895967094
 Br        23.9995367655       12.2409032773        9.2564860777
 Br        23.8245266872       14.8935709464       12.8489094255
 Br        29.3933994983        8.8716201830       12.3602287153
 Br        10.5715649996       26.5724945222       18.3718427633
 Br        23.9394509623        8.9233752550       11.5964035445
 Br        17.9233325343       14.7452322017       12.3312326261
 Br        14.9611562128       24.1107346378       12.0158702524
 Br        32.8361443389       29.0766185511       12.3369409966
 Br        18.9309112343       26.7738331538       18.3746201990
 Br        33.0789987380       23.2063335642       17.7692202394
 Br        20.9959745920       29.4278946556       11.5464947798
 Br        24.6698780144       29.5160141168        9.0272833071
 Br        23.6689579783       32.8138229879       11.6668807111
 Br        20.9856349569       24.0334001087       12.2707380837
 Br        24.2695198834       24.1360255292        8.9595330479
 Br        24.2235189789       26.7316171537       12.1265941964
 Br        27.1074487082       17.3359838811       18.4442368365
 Br        29.7040140954       18.0016374072       15.0031909226
 Br        29.5456375951       20.9818544260       17.9976143769
 Br        27.1803433427       12.5495792636       17.7349017916
 Br        30.4254768929       12.0958798159       14.9614951951
 Br        31.1319174949       15.0784635849       17.7318195873
 Br        30.2464656175        9.0024690538       17.7714599049
 Br         9.2591536369       18.2207911805       29.6921501444
 Br        18.8820701522       29.9526335270       33.1167291402
 Br        26.8831831919       30.0788126146       12.7150038367
 Br        32.9965008058       24.2911382793       29.3911626218
 Br        26.9838845167       29.1880769923       17.9520179014
 Br        29.9520083266       29.2410485890       15.0387995573
 Br        29.4757539313       32.6607586300       17.4912611399
 Br        27.0680787646       24.4754091899       18.0072443686
 Br        30.0097442368       24.1846538818       14.9132738353
 Br        31.3204951482       26.8751521113       18.0929637576
 Br        27.0834448755       17.8638192039       23.9050914208
 Br        30.3998048291       18.0927007560       21.0373322610
 Br        30.7785955030       20.9263894656       24.4322319505
 Br        26.8834061496       12.2179369315       24.1846694622
 Br        29.4818870733       11.9024200585       20.9254755316
 Br        29.8760648287       14.9103182824       23.7961050762
 Br        29.7651533256       29.8199592966        8.9865439875
 Br        29.9934933870       32.7733352722       12.1666900364
 Br        30.0107937954        8.8426712980       24.1460912011
 Br        18.3437429093        8.6224036687       11.7762760453
 Br        26.9184592738       23.3168727125       12.1819530288
 Br        11.2380792983       17.9114686741        9.3012145969
 Br        15.2620052494       30.6886314419       30.6501865784
 Br        17.8292039899       29.2936970710       27.1918193133
 Br        18.7583642806       32.8231173724       29.6576324812
 Br        27.0385728620       31.2619696750       23.9941906706
 Br        29.8198285039       29.7022308220       20.9924521044
 Br        30.7537986977       32.9118265382       23.7490438136
 Br        27.1176986384       23.2825727131       23.4180200521
 Br        30.4969348690       23.6937418921       20.9770396484
 Br        29.3702146665       26.8973274192       23.9650401005
 Br        27.0830568897       17.7375744756       29.8867126345
 Br        30.0732192660       17.7705584228       27.0528621752
 Br        30.1189683721       20.7652195247       30.0062956939
 Br        27.0256094610       11.7335915086       29.5800408117
 Br        29.8355095773       12.1886240555       26.8685637246
 Br        29.6936525377       14.7401308957       29.7336793615
 Br        29.0560223340       26.8037686793       11.6432756907
 Br        13.1590915468       30.4878224205       27.0692067010
 Br        30.0003327109        8.7953935376       29.1698110894
 Br        33.0392362240       18.7086764944       17.8464976307
 Br        12.6187058356       20.7689223110       12.5191752574
 Br        11.2206352261       32.8496472911       30.1719598178
 Br        15.3839723093       24.1163286940       31.3160413479
 Br        17.6557499004       23.9407558681       27.1275193904
 Br        18.1210564828       26.8211514737       30.4363810558
 Br         9.0035856178       22.7508182269       12.4234447362
 Br        27.1498679257       30.3199187094       30.7845217899
 Br        29.6456600692       29.8674584398       26.9772578008
 Br        30.5526724879       33.0069756367       29.6205481754
 Br        27.1364348042       23.5352792846       31.1527329420
 Br        29.5111986048       23.9191211302       27.0191923645
 Br        29.7079524388       26.9047865076       29.8875766485
 Br         9.3455286391       11.9353503244       18.1080047960
 Br        12.6604427795       11.9885895143       15.1502006092
 Br        29.6968828648       17.2094203409       33.0875857205
 Br        12.7420511398       14.7017196799       18.3165755158
 Br        29.9280360339       11.9509765500       32.9043275767
 Br        33.1896505854       11.7630304478       18.7470698840
 Br        11.6570332214        8.6918669223       17.8268119076
 Br         9.5268804176       23.5680013008       29.6747562686
 Br        12.9560094761       23.5791527036       27.2312169817
 Br        12.7800439375       26.9606460239       29.7989553408
 Br        17.8503038958       11.0955987774       33.1621262112
 Br         9.2305902102       29.9430384415       24.0690229452
 Br        31.1250382181       29.8829402031       33.0370863308
 Br        12.2615168276       29.1842347726       21.2499925245
 Br        30.6730723072       24.4387445881       33.0623885579
 Br         9.2683488979       30.4615515133       18.4630967143
 Br         9.0244704935       12.4153290972       12.8999917805
 Br        32.8825865214       24.1760493248       11.7080709117
 Br        11.1871273626       11.7522435753        9.2281597702
 Br        12.3510686450        8.8398759679       24.3711453505
 Br        12.5612651285       14.7514990643       12.1378441934
 Br        12.0315489540       23.1210893407        9.0999590909
 Br        11.2277494671       26.6633930953       11.6834203639
 Br        12.3847643740       32.7097375724       23.4812922912
 Br        12.1245798407       29.1364594228       15.2216886671
 Br        12.8265192179       32.2864839292       17.9650179618
 Br        18.9151902825       11.9521130501        9.1002844737
 Br        29.6062133470       11.4555289334        8.8174866585
 Br        18.4123582148       23.0523815544        9.0617907041
 Br        30.0034789448       23.6609195966        8.8154429316
 Br        19.0557715699        8.6868823923       17.7402704564
 Cs        21.5357565453        9.4734922655       20.5863384277
 Br        18.8284512977       18.3862147738       33.0952822864
  C        21.3230668412        8.2065163795       14.5194676705
  N        21.0710076014        9.5197394628       15.1815424420
  H        20.4246736533        9.4069344494       15.9993866916
  H        20.6656898693       10.2034619010       14.5138915546
  H        21.9649805771        9.9497655704       15.5029547900
  H        22.0973723652        8.3385941023       13.7542449332
  H        20.3909595782        7.8616556784       14.0602213791
  H        21.6606276957        7.4955103023       15.2792384801
  C         8.0604974952       15.7451138869       32.8600592787
  N         9.1990477868       15.7417754370       31.9041578702
  H         9.2939963908       14.8077085445       31.4247892016
  H        10.0870555100       15.9910855836       32.3776200600
  H         9.0862987563       16.4825508664       31.1653816186
  H         8.0208327517       16.7193276094       33.3567924946
  H         8.2109459744       14.9515965509       33.5984445470
  H         7.1340253510       15.5601319651       32.3082274556
  C        20.4293080113       33.1975805247       21.2443062264
  N        21.1550002958       31.9143779421       21.4861339168
  H        20.4760088461       31.1570443525       21.6969104619
  H        21.8359460612       32.0159240942       22.2787258895
  H        21.6610623214       31.6067680850       20.6376601207
  H        21.1658752625       33.9797040732       21.0393412631
  H        19.8570818586       33.4429250820       22.1455076344
  H        19.7574467812       33.0678495874       20.3877952200
  C        20.3577339629        8.2445209545       27.2266456602
  N        20.6648740385        9.6826228041       26.9837801651
  H        19.9132728634       10.3126467808       27.3269878766
  H        20.7656828975        9.8899004593       25.9613523780
  H        21.5646837370        9.9808460557       27.4115492519
  H        21.2205892084        7.6482960587       26.9155168482
  H        19.4745252120        7.9762860352       26.6368033879
  H        20.1493358013        8.0996944698       28.2907554723
  C        15.1669619020       27.3990779558       33.5378377142
  N        15.2535962504       27.6372281603       32.0687854484
  H        14.4447985228       27.2327607817       31.5512481435
  H        16.1148993105       27.2157523728       31.6564299396
  H        15.2664199718       28.6551839312       31.8311615140
  H        16.0380381045       27.8589933599       34.0153308883
  H        15.1591429307       26.3185553728       33.7124375910
  H        14.2432759570       27.8561463170       33.9081027832
  C        21.3389954996       14.2992916554       33.2671841882
  N        21.5773805090       15.2583955031       32.1513590387
  H        22.1699211750       16.0627209053       32.4632150202
  H        20.6783416585       15.6023465757       31.7659313288
  H        22.1047131905       14.8240679890       31.3638782578
  H        20.6350944356       13.5367009664       32.9188514555
  H        20.9047139058       14.8472063293       34.1086877643
  H        22.2940446688       13.8446473989       33.5519035553
  C        15.5909874170       33.0327735844       15.1671559354
  N        15.0074889869       31.6667767401       15.3390057019
  H        14.4730850413       31.6122024494       16.2321459577
  H        15.7548644755       30.9440946292       15.3398797457
  H        14.3424398577       31.4655918301       14.5666110962
  H        16.2038108637       33.0402981229       14.2593482306
  H        16.2054585153       33.2532704389       16.0470287227
  H        14.7658425773       33.7442106194       15.0754182414
  C        33.4295042972       20.6772512447       27.4538365527
  N        32.2352611826       21.5702497393       27.4822316859
  H        31.7784575422       21.6076669020       26.5476517139
  H        32.4845902882       22.5340502825       27.7953306632
  H        31.5268213552       21.2232564757       28.1688601259
  H        33.8525946721       20.6239895153       28.4613283490
  H        34.1616018388       21.0916445626       26.7546596802
  H        33.1165264774       19.6819638872       27.1218064826
  C        33.0794898572        8.5952737518       26.8687316621
  N        32.4055151706        9.9215011232       26.8171089138
  H        32.7252882632       10.5537146733       27.5973443526
  H        31.3843133443        9.8140456241       26.9405896539
  H        32.5680650871       10.4128589420       25.9091920202
  H        32.7086259186        7.9856633252       26.0386220838
  H        32.8277846081        8.1221070439       27.8235402802
  H        34.1604814905        8.7401391534       26.7856674919
  C        27.3320795695       14.7733277282        8.9539088207
  N        26.4963445965       15.0074470903       10.1689873454
  H        26.8704696414       15.7920852407       10.7469962450
  H        26.4577052836       14.1617592304       10.7713226358
  H        25.5294450858       15.2939448933        9.9097034181
  H        26.8460005867       14.0086374680        8.3412892014
  H        28.3244429204       14.4314914554        9.2646320491
  H        27.4109969021       15.7131340706        8.3992286887
  C        14.8336330073        8.2025732214       21.2586830040
  N        15.2624023595        9.5150909833       21.8205817576
  H        15.7100464411        9.3887989464       22.7608295017
  H        14.4605189106       10.1682568845       21.9017993415
  H        15.9748953533        9.9831252526       21.2245187883
  H        14.4127376190        8.3661734190       20.2611460980