     752
 i =      101, E =     -8236.3364128558
 Cs        20.6487624512       21.1226559720       15.1128090524
 Cs        20.4230830471       15.0977995555       15.2742923996
 Cs        21.3316146827        9.5426637815       15.3061631610
 Cs        14.8282814379       14.8856895013       15.2249708086
 Br        11.5829752287        8.8903410591       12.4571226500
 Cs        20.6525832960       26.9074531920       15.3412898283
 Cs        21.0773168815       21.1147907791       20.5645662938
 Cs        20.8588517317       15.4567925379       20.8881773210
 Br        14.9412511768       17.6346003683       23.6782563858
 Cs         8.7419092560       14.6714339059       32.3766453733
 Cs        32.0411525220        9.3341730922       20.6617006982
 Cs        15.1184162134       26.6885411431       20.9711763888
 Cs        21.1473091356       31.9861281549       21.2668012063
 Cs        20.7752276272       26.6580040665       21.2358805021
 Cs        21.1261415943       20.9650925475       26.6849973401
 Cs        20.6043485484       14.8550463802       26.7804440296
 Cs        20.2304467500        9.3581668269       27.0903600831
 Cs        15.4106805300       26.7736967861       32.8659937162
 Cs        14.0613807065       20.7253990519        9.0019668093
 Cs        14.2214843205        9.0701590959       15.1337235665
 Cs        15.0197471717       21.2404367551       27.1803147629
 Br        18.4114075176       18.4297332244       21.0294681130
 Cs        21.5324012655       26.6922798004       26.9298991043
 Br        33.0424924284       12.1932690136       11.9180594817
 Cs        21.4261101306       15.1536699223       32.0721237746
 Br        17.8297001646       20.7925449670       24.6091190059
 Cs        32.7576251610       32.2359981485       14.9714735413
 Cs         9.2209082613       15.5138405155       27.3271089362
 Cs        14.4757428025       15.0357714048       26.8516722579
 Cs        14.2462486414       32.0896045186       15.0201728777
 Br         8.6248285139       12.4834735981       29.7300967803
 Br        11.7057050355       12.2511391419       27.0932367688
 Cs         9.6177123045       15.0797624645       15.0366254794
 Cs        14.5904725490       26.6467363630       14.9134078552
 Br        11.7895633952       15.0794288001       30.1236921812
 Cs        32.8089875435       27.9378783785       32.2008064332
 Br        14.9182882705       17.8467567867       18.8071114755
 Cs        32.6034182734       27.3452574161       20.7139394875
 Cs         9.5258158342       14.9158739904        9.6094107469
 Cs        32.7378403144       21.1514965600       27.7903181075
 Cs         8.4767219187       32.2230540149       14.4660791708
 Cs        32.5254573613        9.3800019684       27.2506551434
 Cs        26.5777359220       14.7796341262        9.4482636635
 Cs        27.2757965284        9.5081805720       26.9922843093
 Cs        14.4020253266        9.4056682614       21.6987149359
 Cs        27.2774935929        9.4203744176        9.5010260918
 Cs        32.5487697887       26.9145953465       15.0663378813
 Cs        32.1009664026       32.7654604072       26.9704051686
 Cs        32.1149829228       27.0687062117        9.3733760600
 Cs        20.7578164709       14.7840058950        9.7667333608
 Cs         9.5848257040       20.5969697817       15.1353318373
 Cs        27.4072734198       14.9216793622       32.4208873214
 Cs        32.5562820519       14.9567743465       27.3299656169
 Cs        20.8738559418        9.3607162267       32.3059714144
 Cs        20.5680511692       20.4510426940        9.7679046721
 Cs        21.2680522279       32.1003381790       26.9319245623
 Cs        21.7632930000       26.8964282673        9.7156654339
 Cs        26.8896119571       21.4465827261       15.1532183659
 Cs        26.7798842846       15.1346019434       15.0191168246
 Cs        14.7240342913        9.9057279627       27.0663181100
 Cs         9.7008326207       21.0946639474       27.3358078558
 Cs        27.3461223232       21.5210594739        9.1687335686
 Cs        27.5392951604       33.1186942532        9.6425760926
 Cs        20.8967295921       26.7680421559       32.2949891571
 Cs        14.8649714961       32.6908121851       27.4842124363
 Cs        27.4277540911       32.6542520278       14.9341206149
 Cs        27.0676264112       27.1246005832       15.1590791668
 Cs        26.7731792799       20.4615135907       21.0208239719
 Cs        26.8911199394       15.1095803847       21.5773456677
 Cs        26.8459639976        9.7788009372       20.8970032895
 Cs        26.9047556310       27.3935201545        9.4688440996
 Cs        15.1245547833       27.0082275168       27.3685362925
 Cs        15.1269628925       14.9209388387        9.4250283591
 Cs        27.0079361606       26.6371527395       21.3552630162
 Cs        27.3082377494       20.9903469807       27.2287986203
 Cs        27.2557021508       15.3378886758       27.0308630436
 Cs        14.6977707641       32.4536715942       20.6288223146
 Cs        32.1931052580       21.1736291951       20.5728190157
 Cs        15.1304792698       20.8083590350       21.2181315260
 Cs         9.8933832265       27.1514677624       27.4222715337
 Cs        14.8902649035       21.4545028260       33.1084430227
 Cs        26.7497977704       32.5365815681       26.8455277590
 Cs        27.0899986943       27.1679974233       27.1894216075
 Cs        27.1925818788       20.3572860513       32.8077380664
 Cs        27.0693218710       32.4153348393       21.1759229915
 Cs        32.1229676743       21.2761657102       15.1568719873
 Cs        32.4814944423       15.1384954313       14.4381096398
 Cs        26.8911246286       10.3289794084       32.8505431613
 Cs        27.0039503126       32.7426451636       32.5354777131
 Cs        10.0182436517       27.0544235785       33.2537154363
 Cs        14.0493353680       27.1498842422        9.5749764555
 Cs         9.5016106573       32.0439604863       21.2696591814
 Cs        14.6485559764       14.8266311007       32.8329410652
 Cs        13.8164705052        9.5166029237       32.5017358715
 Cs        27.4093963525       27.3366378005       32.9326960408
 Cs        32.3819671778       14.8881052483       21.5467691244
 Cs         9.3886597578       21.2982391229       21.9129062995
 Cs        14.5192748462       32.8960021475       10.2427134568
 Cs         9.7558383660       26.8102252762       21.6266222918
 Cs         8.8500376372       10.2838197660       14.9279864037
 Cs         9.4263564604       14.8457325967       20.5847193424
 Cs        14.9259897689       14.8152096857       21.0756616579
 Cs         9.2233983327        9.4582330446       27.8011786256
 Cs        32.5497700610       15.1453707073       32.4324254674
 Cs        32.3554871778       27.2934777246       26.8265413830
 Cs         8.8915276966       26.7723798687       14.8560142866
 Cs        14.9733244588       20.6161546473       14.9349150962
 Cs        32.5128279724       14.3523208573        9.2011129697
 Cs        32.7294983778        9.7122395486       14.7094880442
 Cs        14.0560989586        8.7986587687        9.5836802785
 Cs        20.9842680749       31.7205274312        9.0808847670
 Cs        20.6568208935        9.6001237669        9.6431912369
 Cs        20.2583879614       32.2736660636       14.8285454645
 Cs        15.1545191079       32.5143974530       32.4692039781
 Cs         8.8145680293       27.2557666004        9.5437125562
 Cs         9.1911330000       32.4941889065       26.8188329291
 Cs        27.0382906489        9.5555036807       15.5401709305
 Cs        32.5631923531       21.5791821817        9.9779741132
 Cs        20.9595551201       32.1858988181       32.3891609221
 Pb        24.1576132892       18.0219702689       17.8753381061
 Pb        23.9622700272       12.2474018604       18.0236969883
 Pb        11.6580739542       17.9311679955       24.3103549586
 Pb        17.7319770994       11.4609378389       18.0645711633
 Pb        23.9259021737       30.3613028538       17.9126458413
 Pb        23.9013199915       24.1777569664       17.9067617766
 Pb        24.0165950663       17.8801449317       24.1262263162
 Pb        23.8706973466       11.7369754279       24.0659103632
 Pb        17.9718050697       30.2158241570       23.9968991486
 Pb        24.0532305799       29.7835905636       23.9529459522
 Pb        24.2284696006       23.7441520428       24.0160046939
 Pb        24.0368345159       17.9237854272       29.9942065140
 Pb        23.9896158624       11.9196695062       29.7887758643
 Pb        18.0295235683       23.9749041891       24.0011652338
 Pb        23.9998388962       29.9895128881       30.1431684472
 Pb        24.2487703578       23.9347464927       30.3444803605
 Pb        17.8128668341       18.0369221082       30.4270255558
 Pb        11.2592917271       11.6742897170       24.1218627450
 Pb        11.5311050354       23.8350533269       18.0821791638
 Pb        17.8849868061       17.8886112828       12.0120876552
 Pb        17.6226755953       11.8226259532       24.0904972121
 Pb        17.6598996818       29.9868483007       17.8445834385
 Pb        17.7150697172       11.9409554445       30.3246574363
 Pb        11.9044805661       17.9758340673       18.2194443393
 Pb        11.5575362551       11.6396227356       18.0647249375
 Pb        17.7213617211       24.0737671123       17.8041846022
 Pb        11.4644348178       12.1718299067       30.2202328671
 Pb        11.8490628506       17.7812003957       11.9054135660
 Pb        29.9808447234       18.1911612414       11.6855500970
 Pb        30.0819666726       11.9233350547       11.5250611527
 Pb        17.8318187200       11.7290454009       12.0094007858
 Pb        11.1851780230       29.9969354691       11.8656612288
 Pb        23.9562905367       18.0073585931       11.8327176577
 Pb        23.9971015239       11.7757734980       11.9094420118
 Pb        17.7321823617       23.8155821385       11.2833274218
 Pb        23.9277037466       30.3343038202       11.9844501399
 Pb        23.8835214453       23.9569087039       11.8530188624
 Pb        30.2087558935       17.9814669711       17.9044142708
 Pb        30.2075687017       12.1778146009       17.8867651041
 Pb        11.6647782580       18.2798865059       31.1120837184
 Pb        30.1704956098       30.4557544099       11.7854247210
 Pb        11.3544066903       23.6430539827       11.8830593616
 Pb        17.9554713255       29.9665924155       30.0367519708
 Pb        30.0989277718       30.2150909907       18.0269895546
 Pb        29.9561646261       24.1171910061       18.0751706618
 Pb        30.3761633695       18.0259856083       24.0801432875
 Pb        30.0753045792       11.6860796602       23.9998769693
 Pb        29.9303547208       24.2912474124       11.9630797031
 Pb        18.1171493156       23.8806084467       29.9725945407
 Pb        30.2311174948       30.1162211823       23.8543781743
 Pb        30.3269527882       24.0368400649       24.2400442424
 Pb        30.2529637492       18.0588500529       30.2220386708
 Pb        30.1258079945       11.7382076691       30.1264620336
 Pb        30.1563202986       30.3757081781       29.9895695677
 Pb        30.3182085590       24.2868613618       30.5703373190
 Pb        11.9511416388       24.2054943266       30.5061242074
 Pb        17.8180302197       17.8231142369       24.1982205109
 Pb        12.1907936404       30.1614878868       24.1061199537
 Pb        11.4573020971       29.9156007831       18.0426553574
 Pb        11.7410091379       11.7754109317       11.8499251208
 Pb        17.5387622622       30.1132471476       11.6032730619
 Pb        12.1206562226       24.0743882964       24.2692711084
 Pb        11.6523329065       30.2316909027       30.3319804428
 Pb        17.8770407624       17.9580236072       18.1494758933
 Br        20.9498711513       18.1704253758       17.7385809679
 Br        24.7643501520       18.3983572054       14.9943948937
 Br        24.2883398774       21.0131909546       18.3202771333
 Br        20.9796057772       12.1864306425       17.9068629690
 Br        24.1677725860       11.7179340218       14.9398094488
 Br        23.6753997508       15.0608087712       17.1990722428
 Br        17.4732365330       17.6879995510       14.9875283537
 Br        12.1493794847       17.9650008194       27.2240865897
 Br        17.6522131930       21.0352589004       17.5643016545
 Br        14.8525266759       10.8330062358       18.2990077070
 Br         8.8683318428       18.4597386712       24.7087464176
 Br        11.3217495593       18.1627917781       21.1616264013
 Br        32.9517741133       11.0706928366       23.8024599244
 Br        20.6970666227       30.3268011986       17.8500543305
 Br        23.8442195314       31.3528802696       15.0819011081
 Br        23.9919792865       33.0065107893       19.0637012833
 Br        20.9223964509       23.8504649646       17.8165880841
 Br        23.7371430968       23.3858964182       14.7865037061
 Br        23.8112083164       27.0640969869       17.2527480749
 Br        21.0648837046       17.6475094523       24.3677683173
 Br        23.9751663893       17.5571171796       21.0720346187
 Br        23.5405809143       20.9055500821       23.4449978631
 Br        20.8064033708       11.7353985191       24.1807765779
 Br        23.8439171375       12.7506920696       20.9688427056
 Br        24.3356537364       14.9718546025       24.6199428188
 Br        14.5638803066       29.7855542474       12.0051533168
 Br        17.4486465237       31.5197855643        9.0096809218
 Br        23.9366643394        9.0437516748       23.0423408811
 Br        17.2504811269       32.8171461830       12.6965204820
 Br        12.1239215508       21.1273420130       24.3818615487
 Br        17.2826760292       11.7147260564       15.1582618821
 Br        15.1354581091       31.1975690292       24.0919215073
 Br        17.7538340567       30.3200292509       20.8941847141
 Br        18.9692277285       32.9180926041       24.1443971586
 Br        21.0241415454       29.3361753857       24.0900052142
 Br        23.9054318314       29.3670996604       21.0222642066
 Br        21.0262022265       24.1410147136       24.2482884787
 Br        23.7693635273       24.4548746338       20.8660736964
 Br        24.5334305374       26.8669863482       24.3788481982
 Br        20.9034076317       18.0382023911       29.8721583512
 Br        24.2363347574       18.7076433950       27.0952274237
 Br        24.2604497800       20.8199477035       30.5799632730
 Br        20.8970831868       12.0092555702       29.9228385975
 Br        23.7950308293       10.7532537759       26.8671295687
 Br        23.7748495411       14.8626268766       29.1478796237
 Br        12.0394875119       23.9788662466       21.1159571327
 Br        12.6409296802       27.2239097167       24.3237586755
 Br        12.1076045525       21.1072361257       30.4233958869
 Br        17.8974798146       14.9494535220       18.3161392366
 Br        14.9811685471       23.7652173051       23.7619327288
 Br        18.1159701427       23.5732418792       21.0216426696
 Br        17.7329052547       26.8866928484       23.6246103599
 Br        20.9915558007       29.5552714214       29.7633234703
 Br        24.1345930917       29.7776697312       27.1488723914
 Br        23.6733575166       32.8932046840       30.0054515185
 Br        21.2142135880       23.9885960216       29.5465751221
 Br        24.4670940431       23.5459356292       26.9527929133
 Br        24.3399215795       26.8904053220       30.0516525860
 Br        14.7843079120       18.1266391769       31.1160686697
 Br        17.5358227985       17.2116637967       27.0519339228
 Br        18.1884586634       20.9952230936       29.3784773203
 Br        23.9348724977       12.4396819756       32.7323233465
 Br         8.8676950091       22.8736620425       18.3919823441
 Br        12.2831175489       17.7853802670       15.1690788947
 Br        12.4829414342       20.8962491980       17.8385512343
 Br        23.3492739518       24.1007868627       33.0628379736
 Br        14.5611562040       29.4871575618       17.7649987671
 Br        17.7297366765       29.3393691179       14.8445759598
 Br        14.8233286275       24.5091863286       17.9519988743
 Br        17.7617802404       24.5109097060       14.8892291681
 Br        15.0610711557       18.0877653208       11.6768449388
 Br        17.9296783628       20.9973098683       12.4417009677
 Br        14.7470061440       12.1197501761       30.0981741533
 Br        17.7169648976       12.2619284871       27.1914946818
 Br        17.9460458852       15.1068185107       30.9652623752
 Br        11.8224989435       11.9568537952       21.0904807226
 Br        11.1567037454       15.0147481500       24.1150692651
 Br        11.5457646994       12.5074940843       33.1288649564
 Br        32.9491163071       29.8025967030       17.7797267459
 Br        33.0701439541       24.6928187822       24.2036539189
 Br        12.4680874047       24.4584963078       33.3552357217
 Br         9.0213671956       17.4502842297       12.1577598384
 Br        33.1218016748       17.7872903425       29.9885077332
 Br        14.7014033391       12.3384373341       24.0716759030
 Br        27.0531634220       18.0858250971       11.0679307746
 Br        29.7106310796       21.0985885907       12.2394914104
 Br        17.6752264700       11.1518504347       21.1932692262
 Br        18.0741078510       14.7152095897       23.4670493851
 Br        27.0591667513       11.5982990002       12.3219415840
 Br        14.8430848516       11.6619669624       11.5253801263
 Br        29.8584520652       14.9887200481       11.7161258971
 Br        17.9174934884        9.0667943288       30.1148570224
 Br        11.5548282912       24.0744448259       14.9818649574
 Br         8.3077410903       29.5111846808       12.1173189505
 Br        11.4486555802       29.7376836459        8.9479691661
 Br        33.0681080766       30.1336045049       29.4093799688
 Br        21.0492782554       18.0399742151       12.6590636293
 Br        23.1290422787       17.6516307459        9.0974707928
 Br        24.0391581571       21.1200265651       11.0740660128
 Br        20.9079773777       11.9809491952       12.5264738177
 Br        24.1491792319       15.0105553371       12.1589213658
 Br        10.6460237280       26.7809566658       18.1078977104
 Br        23.8271537095        8.9111794491       11.4033445295
 Br        17.8141949935       14.8344969639       12.2497122537
 Br        14.7092834775       24.2213896087       11.5668047516
 Br        18.2104950625       27.0534034365       18.4513842914
 Br        20.7575712121       29.9107453137       12.0799710817
 Br        23.9985648247       29.8657304952        9.0999748363
 Br        20.8026668540       23.7758035408       11.7257458702
 Br        24.1454826048       27.2970463005       12.4561681591
 Br        27.0384585640       17.3592218830       18.3359970529
 Br        29.9209610506       17.8741830660       14.7973574370
 Br        29.4402840404       21.0365552134       18.0264128144
 Br        27.1283935328       12.4094497151       17.9443829438
 Br        30.1327588759       12.1982547907       14.8790923084
 Br        31.2524586458       15.1321742522       17.9391319668
 Br        30.0992869766        9.2157157785       17.6103604258
 Br        18.0138620954       30.0016042689       33.0027376280
 Br        26.9427796089       30.4391443684       11.9491473968
 Br        26.8681256859       30.2507021893       17.7105543096
 Br        29.9685842966       29.9184266347       14.8322450879
 Br        26.9977052262       24.4042072736       18.0559609742
 Br        29.7753092768       24.1409965886       15.0700912076
 Br        29.9946472659       27.0981491645       17.8353252478
 Br        27.2547465894       18.1697116322       23.9809779727
 Br        30.1914566722       18.0185508063       20.9531125539
 Br        31.1810992031       20.8826109316       24.1279645466
 Br        26.9445470999       11.7793844253       24.0847845267
 Br        29.7758423868       12.2375302703       20.9965779980
 Br        29.9245000195       14.8114493527       24.1944263178
 Br        30.0984185620       33.2689209728       12.3285008966
 Br        26.8410724895       24.0803224546       12.0666952425
 Br        12.0367305210       17.4911556828        9.0231766163
 Br        14.9342577826       30.0130856883       30.0045804899
 Br        17.7484107861       29.9796737589       26.9657193457
 Br        27.0202655722       30.1162857509       23.9625359893
 Br        29.4986251653       29.5886747899       20.8858165165
 Br        30.1118604863       32.9716632903       23.8699465213
 Br        27.0819089802       23.2351029965       23.6128382022
 Br        30.3146385354       24.3000061753       21.0741727214
 Br        29.5742159174       26.8893437580       24.2956425398
 Br        26.9897133036       17.8082756445       29.9863051289
 Br        30.0414038425       18.1473629885       27.0146543023
 Br        29.9800151275       21.1044220488       30.2524583258
 Br        27.0135263995       12.2810144566       29.7128301652
 Br        30.1740390275       12.0176564417       27.0546741687
 Br        29.9581670564       14.9970876531       29.8936315066
 Br        29.6813269058       27.1934687427       12.0448995142
 Br        12.1146247729       30.2515618433       27.1698228110
 Br        29.3146001026        8.9431625733       30.0645036346
 Br        32.9767559792       18.8835709400       17.8042471929
 Br        12.1909560765       20.9219615575       12.3383361751
 Br        12.1976830396       33.0665688671       30.3107154594
 Br        15.2109932788       23.8509563899       30.3180440347
 Br        17.7237965910       24.3429197215       27.0779445533
 Br        17.8659222295       27.0143477273       30.1051648543
 Br        26.9823287643       30.2632770656       30.0235617780
 Br        29.6169930097       30.0837926548       26.9075747689
 Br        27.2011390493       23.9859502310       31.0019439681
 Br        30.1187181500       23.9685044510       27.2847109153
 Br        29.8248239803       27.1934985369       30.0202756618
 Br         8.8442775343       12.4553895384       17.7610914708
 Br        12.0474102849       12.0776826017       14.9931617919
 Br        30.0075905064       17.6292352874       33.0937173283
 Br        12.2616454015       14.7804887604       18.1721208792
 Br         9.1350929587       24.8156191435       30.4762207755
 Br        12.4763216762       24.1142366756       27.2186970664
 Br        12.4451462615       27.1569403825       30.2274188788
 Br         9.2606182303       29.7023412236       24.0796030121
 Br        30.0820872101       30.4922857953       32.9128185473
 Br        12.2040169934       29.5629015504       21.0942481342
 Br        32.8931102190       24.5513461929       11.9929934549
 Br        12.0792274874        8.9425404964       24.6245588475
 Br        12.3274237681       14.8462339642       12.1414598902
 Br        11.4910303528       27.0087046887       12.0443536266
 Br        11.2482000345       29.9103463437       15.0439745647
 Br        11.8025558351       32.7669143388       18.3184993283
 Br        18.1731481979       12.0446858276        9.1679630304
 Br        29.4689280019       12.5382177558        8.6908580839
 Br        17.5703951742       22.6074814991        8.7343242982
 Br        30.0535334134       24.0970067117        9.0077201170
 Br        18.7829756986        8.7895011239       17.9013811401
 Cs        21.1361630305        9.9223892452       20.8776607374
 Cs        20.9506907972       21.2111376114       32.1390080417
 Br        18.3102995717       18.8724082192       33.1027281488
  C        35.0215306019       18.5586412400       10.6849038611
  S        33.6097936315       17.8321325539       11.5268056901
  O        33.0640000395       16.8170419270       10.5868913852
  O        34.1244298038       17.2968299253       12.7980575750
  O        32.6415300141       18.9619433362       11.7290032239
  H        35.7820115976       17.7775670550       10.5678934124
  H        35.4204741103       19.3728835277       11.3009338117
  H        34.7007694862       18.9193422385        9.7004523723
  C         9.7164154526       17.2879710550       34.8846593771
  S        10.9387500944       18.5820598152       34.6148046471
  O        10.1803423814       19.7685743492       34.2080346873
  O        11.7335921583       18.6299581551       35.8422426600
  O        11.8139420441       18.0418599062       33.4565767655
  H         9.1403208990       17.5742562707       35.7725162881
  H        10.2326816469       16.3371814997       35.0616772648
  H         9.0694803945       17.2592528866       34.0025965572
  C         6.7299445759       29.0601791803       30.2556724132
  S         7.8717598312       30.1889378075       29.4508371166
  O         7.3856802326       30.3496533499       28.0578814483
  O         7.8836184970       31.4165518390       30.2589306643
  O         9.2039272269       29.4531671943       29.4631812375
  H         5.7286126233       29.5018462712       30.1939906568
  H         7.0319905145       28.9605365365       31.3043435814
  H         6.7522676221       28.0879654002       29.7508900311
  C        23.5782958823        7.0074714413       18.8048426579
  S        24.4885402645        8.3526755663       18.0414771610
  O        25.9174278010        8.1258121570       18.3717955034
  O        24.1966885244        8.2900052019       16.5868947640
  O        23.9496685052        9.5966762938       18.7014239142
  H        23.9581385482        6.0660590496       18.3912815749
  H        22.5129041447        7.1204476616       18.5711210859
  H        23.7438085771        7.0428440375       19.8885045487
  C        35.4828907428       17.4327097632       23.8204947814
  S        33.9140118221       16.8174092446       24.4382554428
  O        33.9627160446       15.3382342485       24.3550234493
  O        33.7889142291       17.3208294833       25.8209319524
  O        32.8944893823       17.3901794195       23.4751677163
  H        36.2764937797       17.0313004035       24.4610954791
  H        35.4669046376       18.5273464867       23.8692799250
  H        35.6208016736       17.0979558956       22.7862879838
  C        17.5312498979       26.7655959769        7.5158921840
  S        18.0937824649       27.3284423605        9.1247299300
  O        19.1920440629       28.2879022414        8.8631103731
  O        16.9031526990       27.9693129179        9.7659586975
  O        18.5409847283       26.0971320398        9.8439937510
  H        17.1190649542       27.6242948369        6.9739370993
  H        16.7870091274       25.9716041875        7.6527566110
  H        18.3938535702       26.3534341382        6.9793398164
  C        23.2064311328       35.0802126936       23.8437074909
  S        24.0935134643       33.6811433856       24.5336046943
  O        25.5184706941       33.8706961478       24.1862702694
  O        23.8611664631       33.7094338829       25.9999702612
  O        23.4616857722       32.4821388288       23.8708610915
  H        23.5897089477       35.9903659104       24.3191146137
  H        22.1360452332       34.9598759646       24.0493050012
  H        23.3904533594       35.1100133182       22.7631906162
  C         6.9013635031       24.8295382773       24.3479255136
  S         8.4453933201       23.9972183784       24.7353955048
  O         8.9418582281       24.6081382800       25.9907569904
  O         8.1241223090       22.5580204523       24.8519039734
  O         9.3481029731       24.2816652750       23.5544339825
  H         6.1981911849       24.6248570445       25.1638376247
  H         6.5089320101       24.4339451921       23.4042365777
  H         7.0836352940       25.9080327140       24.2710763327
  C        25.3688233751        6.8714345212       30.4871162160
  S        24.2276577164        8.1524326686       31.0104265868
  O        22.8766811449        7.5539635210       30.9239893124
  O        24.6096484626        8.5279662680       32.3979613315
  O        24.4459673457        9.2717817490       30.0306799266
  H        25.2831277234        6.0339364555       31.1888852789
  H        26.3894739914        7.2741751021       30.4879903115
  H        25.0827096543        6.5507436351       29.4787871901
  C        23.7519881183       16.8055717137       35.2222519895
  S        24.6577455479       17.5910225964       33.8846857423
  O        24.6825123093       19.0335480157       34.1941720286
  O        26.0051856858       16.9779958152       33.8804027545
  O        23.8675645581       17.2305529802       32.6473545190
  H        24.2831451874       17.0208835644       36.1568320118
  H        23.7249351433       15.7239013682       35.0446413327
  H        22.7402724834       17.2259815817       35.2589704372
  C        16.5536405025        6.5768786524       24.2087335330
  S        17.3186409826        7.9661964289       25.0516025377
  O        16.8990361294        7.8784304662       26.4723415795
  O        18.7768134166        7.8068655442       24.8533577711
  O        16.7382729874        9.1845025865       24.3668330930
  H        16.9147042136        5.6572154676       24.6836900286
  H        16.8536687826        6.5991201018       23.1547985721
  H        15.4647473723        6.6529206496       24.3116666843
  C         6.6880175503       18.1086528263       18.0745628054
  S         8.2748583208       17.5378692318       17.4645568781
  O         8.3682884398       16.0947541335       17.8024765582
  O         8.2851824083       17.8019277044       16.0038331601