     189
 i =       88, E =     -2642.6082106960
 Br        24.2420397125       15.5632793833       21.2113775233
 Br        12.5264249069       21.4461066051        9.8555187374
 Br        24.5014787249       21.0447376673        9.9975276898
 Br        24.2420344328       21.2113472602       15.5632863421
 Br        24.4845002316       20.9986915948       20.9987173773
 Br        20.7552085863       15.5097399502       18.5904339680
 Cs         6.9611624393        7.4292928412       12.5120474670
 Cs         7.1770231842        7.3000942937       18.5198756642
 Br        22.1406695566       15.5243739274       24.6106168941
 Cs         6.9611563538       12.5120364496        7.4292958497
 Cs         7.6714303562       12.5106251683       12.5106310537
 Cs         7.4023685730       12.3643686284       17.9931924981
 Cs         7.1570431610       12.6208985730       23.5862578251
 Cs         7.1770209696       18.5198860861        7.3000778660
 Cs         7.4023592784       17.9932006105       12.3643511733
 Cs         7.2024109746       18.6112867830       18.6113164744
 Cs         7.3441638192       18.6088255243       23.9059228375
 Br        20.9997753063       21.4398931202       18.5709908567
 Cs         7.1570557377       23.5862592865       12.6208954742
 Cs         7.3441660708       23.9059137308       18.6088154807
 Br        21.8445153371       21.0756520412       24.6206155276
 Br        21.4524776045       15.5580058043        6.5724896889
 Cs        12.4700382666        6.8248005173       11.8259109653
 Cs        12.6504207782        7.0817720430       18.8882034307
 Cs        12.4131096956        7.4331491177       24.0079223228
 Cs        12.4700250413       11.8258895832        6.8248011380
 Cs        12.7016820294       12.4940179441       12.4940101061
 Cs        12.7673756659       12.9246356425       18.4662127291
 Cs        12.3767452205       12.9006240949       23.6848418458
 Cs        12.6504276982       18.8882006597        7.0817607164
 Cs        12.7674195093       18.4662136529       12.9245864953
 Cs        13.0836930045       18.6208673201       18.6208685380
 Cs        12.6801043207       18.5485723561       23.7822567693
 Cs        12.4131184865       24.0079191641        7.4331453277
 Cs        12.3767482603       23.6848301859       12.9006141671
 Cs        12.6800927617       23.7822446920       18.5485447742
 Cs        12.4549581944       23.8866735829       23.8866446180
 Cs        18.5449973058        7.1133339940        7.1133536395
 Cs        18.3198752479        7.2177621384       12.4514495426
 Cs        18.6232492795        7.3151803274       18.0993847501
 Cs        18.5868883383        6.9920817643       23.5668442557
 Cs        18.3198537080       12.4514254963        7.2177414124
 Cs        17.9162767045       12.3791387303       12.3791271739
 Cs        18.2325684055       12.5337913626       18.0754266232
 Cs        18.3495679118       12.1118051911       23.9182430715
 Cs        18.6232434492       18.0993878907        7.3151683676
 Cs        18.2326100992       18.0753688534       12.5337993611
 Cs        18.2982922806       18.5060001652       18.5060144639
 Cs        18.5299182282       19.1741148541       24.1752082418
 Cs        18.5869011054       23.5668567195        6.9920944506
 Cs        18.3495796248       23.9182300198       12.1118098610
 Cs        18.5299326629       24.1752053968       19.1741005942
 Br        21.9012868467       15.4904275589       12.6080691437
 Br        21.2680136935       20.9531942141        6.5280015220
 Cs        23.6558039036        7.0940802208       12.3911767204
 Cs        23.8429397380        7.4137516420       18.3790973500
 Br        21.0867999537       21.4504207814       12.5603157713
 Cs        23.6558001194       12.3911770236        7.0940653316
 Cs        23.7975630166       12.3887103656       12.3886637518
 Cs        23.5976255052       13.0068181685       18.6356593098
 Cs        23.8229721660       12.4801237321       23.6999235604
 Cs        23.8429516359       18.3790961075        7.4137580505
 Cs        23.5976120530       18.6356296949       13.0068341539
 Cs        23.3285405645       18.4893795750       18.4894018300
 Cs        24.0387913160       18.4879670162       23.5707416898
 Br        12.6107110263       15.6679156784       21.0953553294
 Cs        23.8229691876       23.6999022238       12.4801451477
 Cs        24.0388079852       23.5707086208       18.4879847902
 Br         9.0986330730       18.3919336148       15.5095717488
 Br        15.2234251503        6.4515147591       21.6958659366
 Br        12.6107102802       21.0953243087       15.6679070062
 Br        15.1857727820       12.4075395535        9.4689052004
 Br        15.0187124402       12.4617528957       15.5128970120
 Br        15.5472444381       12.5410479522       21.5716873585
 Br        12.5962304429       21.3016085025       21.3015949809
 Br        15.4527466460       18.4589515621        9.4283137157
 Br        15.9812662109       18.5382493755       15.4871127007
 Br        15.8141896233       18.5924713334       21.5310961742
 Br        24.2611935750       16.0140916613       16.0140584495
 Br        15.7765800348       24.5484911849        9.3041387372
 Br        14.7258888656       24.5712587587       15.5764538279
 Br        15.0402261289       24.6432699790       21.4042348467
 Br         9.7817509526       18.5609045545       21.3294749585
 Br        21.1370417363        6.4118013646        9.7663536565
 Br        21.4524579116        6.5725063496       15.5579930267
 Br        21.2679986167        6.5279984685       20.9531861670
 Br        24.4344738728        9.7247700532        9.7247551902
 Br        21.2182107137       12.4390983643        9.6705116983
 Br        21.9013776667       12.6080729265       15.4904308918
 Br        24.4969150196        9.2834676803       15.2081524676
 Pb         9.3506006644        9.2091733155        9.2091803820
 Pb         9.7409648454        9.2101682781       15.3934217023
 Pb         9.4294043346        9.5267825834       21.5289424202
 Br        15.9597387373        6.3567356589        9.5957722521
 Pb         9.7409576267       15.3934219507        9.2101522089
 Pb         9.6279612847       15.4114952264       15.4114916987
 Pb         9.4818674223       15.6012364665       21.4258310433
 Br        18.4037322130        9.6983955463        9.6984030444
 Pb         9.4294043396       21.5289386701        9.5267737610
 Pb         9.4818675191       21.4258125177       15.6012350082
 Pb         9.5140707132       21.6562029270       21.6562028700
 Br        21.0867979877       12.5603079478       21.4504413968
 Br        18.3892703496        9.9046920876       15.3320917793
 Br        21.3032612731       18.4044138610        9.9244912771
 Br        20.7551760408       18.5904134182       15.5097659292
 Br        18.4735803231        9.5539009841       21.1444808449
 Pb        15.4022579265        9.2149088434        9.2149188922
 Pb        15.3677638853        9.1866996927       15.4012341791
 Pb        15.4999976512        9.4411830284       21.5588249759
 Br         9.7320047009       24.4720097082       10.0468058950
 Pb        15.3677611790       15.4012270841        9.1866799802
 Pb        15.4999968519       15.5000026377       15.5000013425
 Pb        15.6322235627       15.5987771343       21.8133263367
 Br        18.3892665523       15.3320873610        9.9046556361
 Pb        15.5000010030       21.5588215351        9.4411762646
 Pb        15.6322269279       21.8133109408       15.5987654030
 Pb        15.5976991806       21.7850962328       21.7850826898
 Br        20.9997754419       18.5709747308       21.4399111287
 Br        18.4084757582       14.9331089984       14.9331663632
 Br        21.1887281831       24.4327693533        9.6317294217
 Br        22.1406737685       24.6105903121       15.5244020420
 Br         9.5475299478       24.4275042175       15.4420115043
 Pb        21.4858967908        9.3437950649        9.3437924154
 Pb        21.5181214404        9.5741980820       15.3987651304
 Pb        21.5705949149        9.4710698834       21.4732226516
 Br         9.1554381564        6.3794020770        9.9243714168
 Pb        21.5181150099       15.3987606057        9.5741774494
 Pb        21.3720180053       15.5885115668       15.5885263299
 Pb        21.2590218374       15.6065866892       21.7898564492
 Br         8.8593203143        6.3894049808       15.4756161089
 Pb        21.5705989848       21.4732141596        9.4710731228
 Pb        21.2590179190       21.7898319190       15.6065968594
 Pb        21.6493614787       21.7908337963       21.7908431866
 Br        21.8445276969       24.6206018693       21.0756588403
 Br        18.4150463367       15.6127071397       23.0142715323
 Br         9.8112811584        6.5672328826       21.3682929493
 Br        18.4735813117       21.1444752290        9.5538927454
 Br        18.4150574268       23.0142555131       15.6127074998
 Br         9.8629249929       24.5882012258       21.2336383459
 Br         6.5154634721       10.0013148205       10.0013217015
 Br         6.7579455483        9.7886410137       15.4367496363
 Br         6.4985225902        9.9552549972       21.0024882041
 Br        10.0001861173       12.4290260420        9.5601122210
 Br         6.7579348071       15.4367436467        9.7886357972
 Br         6.7387810648       14.9859387831       14.9859687482
 Br         6.5030634024       15.7918479313       21.7165117080
 Br        10.2447675448       12.4095869020       15.4902591171
 Br         6.4985266826       21.0024893508        9.9552429312
 Br         6.5030705884       21.7165260733       15.7918325090
 Br         6.5654956339       21.2752300996       21.2752345093
 Br        18.5531066157       22.1074248836       22.1074192037
 Br        24.5014738770        9.9975207318       21.0447523673
 Br         9.6967260082       12.5955850209       21.0755259651
 Br         9.1554329785        9.9243612381        6.3794080091
 Br        10.0001930187        9.5601133528       12.4290308969
 Br         9.9131963896        9.5495733894       18.4397000744
 Br         9.7319918487       10.0468077902       24.4720169311
 Br         8.8593052033       15.4756127992        6.3893952957
 Br        10.2447451250       15.4902789209       12.4095728828
 Br         9.0986973347       15.5095734010       18.3919488413
 Br         9.5475058123       15.4420061510       24.4275139545
 Br         9.8112824778       21.3682932637        6.5672207387
 Br         9.6967322165       21.0755110496       12.5955754467
 Br         9.7817427507       21.3294458747       18.5609032876
 Br         9.8629310047       21.2336567964       24.5881988261
 Br        24.4969085583       15.2081337782        9.2834918313
 Br        16.2740992183        6.4287515669       15.4235497075
 Br        12.4468546268        8.8925622035        8.8925764459
 Br        12.5849337446        7.9857535422       15.3873070737
 Br        15.9597391796        9.5957427879        6.3567407573
 Br        15.1857774360        9.4689255131       12.4075423823
 Br        15.4527664296        9.4283053128       18.4589629998
 Br        15.7765711519        9.3041404018       24.5484970799
 Br        16.2740958855       15.4235521801        6.4287337314
 Br        15.0187484414       15.5128719944       12.4617523525
 Br        15.9812350127       15.4871320382       18.5382557507
 Br        14.7258851513       15.5764573935       24.5712757900
 Br        15.2234361627       21.6958631764        6.4515079167
 Br        15.5472322729       21.5716954183       12.5410506207
 Br        15.8141944650       21.5310805159       18.5924555157
 Br        15.0402201489       21.4042683785       24.6432634759
 Br        12.5264153365        9.8555300692       21.4461200091
 Br         9.9131947406       18.4397015236        9.5495614336
 Br        12.5849253101       15.3873005671        7.9857353997
 Br        12.5915102295       16.0668835332       16.0668386497
 Br        21.1370343806        9.7663383412        6.4117952363
 Br        21.2182322751        9.6705540005       12.4390934284
 Br        21.3032603011        9.9245037357       18.4044188498
 Br        21.1887209065        9.6317125247       24.4327726764
