     704
 i =      280, E =     -7250.7851292138
 Cs        21.3482546248       20.8305630773       15.0097040676
 Cs        20.5102899170       14.9888446329       15.1196674389
 Cs        20.5597600848        9.5672328675       14.8615815370
 Cs        15.0979953142       14.6599224283       15.0070475150
 Br        12.0568692280        8.6981992625       12.4264741833
 Cs        21.0398145184       26.5668934053       15.1575820730
 Cs        21.2054073851       20.7489182867       20.4591102532
 Cs        20.9368614092       15.2099255145       20.6615854822
 Br        14.9660442686       17.3104485244       23.7481261551
 Cs         9.3072209749       14.7770707232       32.2292323834
 Cs        32.1654922634        9.4631909686       20.8869208773
 Cs        15.2695784045       26.2651360492       20.7232423351
 Cs        21.6372846013       31.9735127255       21.0236345669
 Cs        21.1492849348       26.4097709849       20.9058475755
 Cs        21.2056078209       20.7428068039       26.6207098704
 Cs        20.9786568130       15.0070198866       26.6856017802
 Cs        20.3905876269        9.5742957661       27.1374012706
 Cs        15.4035798557       26.8201477906       32.1339763528
 Cs        14.0048050428       21.1291997149        9.2237532533
 Cs        14.3219161556        9.4220971563       15.2173170084
 Cs        15.4385318715       21.2010617299       27.0290820138
 Br        18.4212669571       18.1281127304       20.9374358415
 Cs        20.9678617098       26.6296159005       26.8348468686
 Br        33.1590933705       12.3684996284       11.9564023563
 Cs        21.0990215983       15.0737292201       31.9694303432
 Br        18.0064256669       20.7329810089       24.3412359175
 Cs        33.0190947660       32.3888853574       14.5284563598
 Cs         9.5975553387       14.9701762958       27.4538902795
 Cs        14.8275282373       15.0079652761       26.9265895122
 Cs        15.2121661257       31.6757418588       15.0949138563
 Br         8.7495227472       12.2474046954       29.7400410867
 Br        12.0202816282       12.1548802369       27.0357239655
 Cs        10.0645030310       15.1929290245       14.8986402361
 Cs        14.9993960317       26.6120068364       14.9963228902
 Br        12.1480656563       14.8446242171       30.0082769008
 Cs        32.9461856511       27.4610025620       31.8166684741
 Br        15.1169010673       18.2910405989       18.4552584694
 Cs        32.3072927792       26.9816621594       21.6395465976
 Cs         9.6623171727       15.1286631303        9.4348724555
 Cs        32.2819552030       21.1757632152       27.0069508073
 Cs         9.3365522158       32.4918356068       15.0350114384
 Cs        32.0064897877        9.1642016066       27.1973384182
 Cs        26.9986336505       14.5368803599        9.5385521718
 Cs        26.9247171246        9.5746711456       26.9717138545
 Cs        14.7592004430        9.7030023262       21.5379182601
 Cs        27.0981500136        9.7079088238        9.1251842194
 Cs        32.4337948397       26.6031604072       14.8254508158
 Cs        32.5966251063       32.7146198763       26.8990742254
 Cs        32.3635192016       26.8226857349        9.3190198621
 Cs        20.6923645325       14.8851023044        9.9005354104
 Cs         9.5640637543       20.2368784785       14.6666206563
 Cs        27.1833129865       14.9994952454       31.7589153545
 Cs        32.2432359797       14.7629780178       26.6433730062
 Cs        21.3977444351        9.4229899919       32.5629537822
 Cs        20.8250670970       20.6606547054        9.7019455381
 Cs        21.4377388499       31.7943264687       26.8760416428
 Cs        21.6598208528       26.8846557626        9.5446636084
 Cs        26.9125922713       21.2743725208       15.1079623647
 Cs        27.0697556322       15.0893394267       14.8903662394
 Cs        14.8881025596        9.9357728199       26.6325888829
 Cs        10.0647484202       21.1000867177       27.1799868834
 Cs        26.8414876831       21.3882824811        9.4490436179
 Cs        27.7252324383       33.2276110642       10.0447744618
 Cs        21.1148714604       26.7357560901       32.1955268095
 Cs        16.0408988176       32.2140603538       26.6531774071
 Cs        27.3743172218       31.8995983395       15.1038681444
 Cs        26.7136825473       26.5830302841       15.0109684905
 Cs        26.7001226645       20.5883174220       20.8361476834
 Cs        26.8573405857       15.0065430443       21.2303148590
 Cs        26.6825653646        9.9572242173       20.5805051993
 Cs        26.6816531108       27.2192657723        9.7040218239
 Cs        15.5862401628       26.7558813512       26.4353271423
 Cs        15.3126646861       15.0624322702        9.6361010210
 Cs        26.8665077368       26.3839322665       21.0144118080
 Cs        27.2236652124       20.6019083618       26.4782129999
 Cs        26.9841301632       15.1484838997       26.5696038149
 Cs        14.7454534225       31.9846016697       20.4229972479
 Cs        32.3055283840       20.9670069470       20.6006335743
 Cs        15.3512292130       20.6233450826       21.4383978211
 Cs        10.2826911031       26.7822848210       26.8637288013
 Cs        14.4665648320       21.0501987619       32.6039973736
 Cs        27.1685027494       32.2902123756       26.8685514437
 Cs        27.0298104708       26.6601406817       26.9740140899
 Cs        27.4381526073       20.0617418564       32.2063782021
 Cs        27.5325124038       31.7652504874       20.2775860598
 Cs        31.9864623313       21.2511097650       14.7244804805
 Cs        32.3396362533       15.1225940799       14.3178737542
 Cs        27.0659329246        9.3768785547       32.3925247281
 Cs        28.5580246667       32.4973579966       33.2583904493
 Cs         9.9486054171       26.8530838547       32.3753680928
 Cs        14.0922773462       26.8978652993        9.6564945146
 Cs         9.6486722400       31.9421229294       21.3872187260
 Cs        14.8598467295       14.5013125530       32.2860217917
 Cs        15.0973746967        8.4131464100       31.5150475218
 Cs        27.8405179668       27.0955128143       32.3941144782
 Cs        32.4266424106       14.4194043424       21.3803744570
 Cs         9.9483912617       21.0908777607       21.3148739367
 Cs        14.5532846185       32.2327722154        9.7501755565
 Cs         9.9652232534       26.4365433433       21.3180769737
 Cs         8.9537845286        9.9068368173       14.9060139420
 Cs         9.7583574675       14.7722912765       20.4657016500
 Cs        15.2130342599       14.9284897816       20.8335742932
 Cs         9.7738830355        9.4228674606       27.3954961140
 Cs        32.5850964841       14.8808220034       32.2396931223
 Cs        32.2003011166       27.0212025351       26.8522224731
 Cs         9.2559660526       27.2541992381       14.9193261339
 Cs        15.3045387370       20.5572490319       14.9294850167
 Cs        32.3383187433       14.6980607624        9.4173244656
 Cs        32.7041234564        9.8308983977       14.5624810548
 Cs        14.3490742201        9.1787242800        9.7088490413
 Cs        20.8997120769       32.0180884540        9.0543102762
 Cs        20.6964875725        9.7017362043        9.6200457837
 Cs        20.3661076848       31.8332998266       14.7289320740
 Cs        15.5897485778       32.3563218916       32.4070683186
 Cs         8.7659373805       27.3258266507       10.1326043201
 Cs         9.2386974534       31.9196417889       26.6135022560
 Cs        27.3855649869        9.6510596745       15.2450583668
 Cs        32.2637382369       21.4033096545        9.2800491177
 Cs        21.0443763803       31.6276660567       32.7962397618
 Pb        24.2813195595       17.6720824981       17.6167656167
 Pb        24.1388796943       11.8474868529       17.6449596681
 Pb        11.6454155664       17.7946684595       24.1186769185
 Pb        17.9002952082       11.5322108914       17.9746162651
 Pb        24.1550836132       29.9626205462       17.8331602540
 Pb        24.1075733806       23.8798889119       17.8640520679
 Pb        24.0612979250       17.8326906553       23.8676200448
 Pb        23.8082504285       11.6400305101       23.7988173194
 Pb        18.3936032877       29.9095616685       23.6745494648
 Pb        24.3533228323       30.0567907291       23.9845900349
 Pb        24.2939079189       23.8110966793       24.0894394909
 Pb        24.1440995116       17.6951233968       30.0129899526
 Pb        24.0587634950       11.4979439769       29.9785185805
 Pb        18.2363237351       23.7471489290       23.8236209350
 Pb        24.1879432809       29.9686843378       30.2175515542
 Pb        24.3874115062       23.7917795682       30.5348298227
 Pb        18.0065966523       17.8597039995       30.1785423038
 Pb        11.2567617596       11.7161884478       23.9484466692
 Pb        11.4240820812       23.7484982471       17.9227696565
 Pb        18.0890992956       17.9591654479       11.8057715071
 Pb        17.7593600435       11.7357359920       24.0702139339
 Pb        17.9187338636       29.7871519472       17.7881585759
 Pb        17.8007922058       11.7137997231       30.4649502725
 Pb        11.9975945917       17.7650119158       17.9715460461
 Pb        11.6591239103       11.6436776627       17.8762361319
 Pb        17.9418572505       23.8104234906       17.6726970793
 Pb        11.6002396631       11.6830218534       30.2337220865
 Pb        12.1209922013       17.8080507157       11.7808505127
 Pb        30.2531879197       17.9133571012       11.2452368259
 Pb        30.1880376846       11.6939818765       11.6090348163
 Pb        17.7241957658       11.6002031102       11.7846490714
 Pb        11.5162886143       30.1407746723       11.9478246540
 Pb        24.1104799200       17.8242270695       11.5860644977
 Pb        23.9721665146       11.6806440790       11.5947571978
 Pb        17.8981632019       23.9095563195       11.4391249128
 Pb        24.0011557828       30.3974301203       11.6871499716
 Pb        23.9721947179       23.9639033193       11.5929389016
 Pb        30.4206761422       17.9539476358       17.6447362685
 Pb        30.5994684275       12.0313187902       17.8067016622
 Pb        11.6342078627       18.0996002340       30.4136532671
 Pb        30.4424722807       30.2619277034       11.6501712718
 Pb        11.3791247408       23.7034601227       12.0482101608
 Pb        18.1740517492       30.0969235324       29.9270572780
 Pb        31.0894029045       30.1173344108       17.6553896722
 Pb        30.4301621097       24.0082015502       17.9395583810
 Pb        30.5491093642       17.7979160349       23.7388108503
 Pb        29.9308893908       11.4809352192       24.0010284479
 Pb        29.9813754853       24.1141928897       11.7424196936
 Pb        18.3075617701       23.8772973971       30.0889852987
 Pb        30.4371876362       30.3840548430       23.9034310423
 Pb        30.0909889825       23.9652406127       24.0736319959
 Pb        30.3924918863       17.7549154127       29.8510832753
 Pb        30.2155826537       11.5254195249       30.2809455678
 Pb        30.3210500047       30.3680853783       29.9759479966
 Pb        30.3928132808       23.9543914568       30.5260015218
 Pb        12.2390847821       24.0733839860       30.0233471474
 Pb        17.9581691082       17.6462265934       24.0205999531
 Pb        12.2935015228       29.9654327864       23.9292164171
 Pb        11.4438308746       29.9030418264       17.9845489690
 Pb        11.3920588566       11.5125566164       11.6175933212
 Pb        17.6790599338       29.6928958705       11.5232946728
 Pb        12.2039867893       23.7944654848       24.0629730054
 Pb        11.3248541706       30.2258621132       30.0907798356
 Pb        17.9827884903       17.8738319755       17.8893466164
 Br        21.1681373709       17.8543397418       17.5553417136
 Br        24.9144022293       18.1851681337       14.6805051895
 Br        24.3237011445       20.7679232397       17.9238601684
 Br        20.9788257361       12.0402265805       17.6302531682
 Br        24.0050239552       10.8159649079       14.7785361304
 Br        23.8907280252       14.8153026296       16.7736897161
 Br        17.5200585452       17.5024466385       14.9484916634
 Br        11.9484292054       17.7211823339       27.0827294882
 Br        18.2565175694       20.8286334501       17.2196670422
 Br        14.8765318091       11.3130389480       18.1878601345
 Br         8.9646033908       18.9427676843       24.2703235876
 Br        11.9048233466       17.8685178125       21.0134562025
 Br        32.9438571739       11.2545234149       24.0296966643
 Br        20.9755349211       29.9651958791       17.7992122144
 Br        23.9193568472       30.8378706655       14.8008380688
 Br        24.5134675732       32.8044172747       18.4778653993
 Br        21.0801806476       23.6430663565       17.7455151781
 Br        24.0521629681       23.7488917979       14.7467349460
 Br        23.7566209890       26.8283533194       17.6092409699
 Br        21.0472649927       17.7949073531       24.2166353382
 Br        23.9624253351       17.4982659766       20.7080227035
 Br        23.7701772448       20.8198211031       23.4473969709
 Br        20.8328038718       11.1158195720       23.8549871840
 Br        23.9130689033       12.5198302343       20.7120671401
 Br        24.0788638867       14.8098125140       24.2246466104
 Br        14.7139152385       29.5666904655       12.0725481322
 Br        17.6369376876       30.7522780375        8.7041819032
 Br        24.1174105353        8.8329065384       22.9787084811
 Br        17.5008071998       32.6316134852       12.2679787463
 Br        12.5433592942       20.7860418883       24.1836732638
 Br        17.3961515705       11.4182314659       14.9226547936
 Br        15.3444387791       30.1390089906       23.7298915852
 Br        18.1811808870       30.7822942876       20.6696294643
 Br        18.9185762243       32.7537058416       24.2716618047
 Br        21.3509870665       29.2936993154       23.8093874341
 Br        24.3294928695       29.4661837438       20.8987739664
 Br        21.2607824785       24.0706336108       24.1830946183
 Br        23.9805313427       23.9683136334       20.8626300039
 Br        24.7384809500       26.7929329135       24.0810907214
 Br        21.1131150826       17.7553184552       29.4302031363
 Br        24.2732676410       18.2773105640       26.7944223779
 Br        24.1926111724       20.6813689807       30.6593351819
 Br        20.9718548248       11.8794250491       30.1588987754
 Br        23.6662761041       11.4754050807       26.8011407414
 Br        24.1115477025       14.6623120445       29.5552080421
 Br        12.5007682923       23.7211710476       20.8708425849
 Br        12.5557551831       26.8307162096       24.0156280498
 Br        12.5485219278       20.9505709328       29.6624517599
 Br        17.8504168321       14.7906810103       18.0612807147
 Br        15.2904319704       23.7982205812       23.7251781146
 Br        18.1956730359       23.2343559739       20.7857181317
 Br        18.0593961007       26.7739802347       23.3125532232
 Br        21.2733422505       29.3792024333       29.6845323691
 Br        24.5278202120       29.6090362216       27.0958227107
 Br        23.3416319888       32.7968778821       30.1436339116
 Br        21.3922643822       23.9785547624       29.6088649176
 Br        24.7731438934       23.5296299931       27.0164696437
 Br        24.7329494257       26.8070143315       30.4115148694
 Br        15.1095428182       17.8852385651       30.9117752925
 Br        17.6852840973       17.3636137597       26.9816048452
 Br        18.3076206411       20.8447674049       29.5558881052
 Br        24.1506346436       11.9350513685       32.9805019198
 Br         8.7788554799       23.7902113820       19.0194643010
 Br        12.6710314696       17.7286380261       14.9210886514
 Br        11.2587066867       20.7408300136       17.8859964922
 Br        23.2915960105       23.9246450573       33.1790009313
 Br        14.8522189248       29.2705001517       17.8460243775
 Br        17.9358411498       29.0457902420       14.7280654096
 Br        14.9408248957       23.8850039316       17.4922433633
 Br        18.0778561062       24.4671482162       14.7452494000
 Br        15.2359136318       18.3151820858       11.3885366781
 Br        18.3434288203       20.8991736045       12.4617459341
 Br        14.9120891069       11.5685050149       29.9447468186
 Br        17.8331548263       12.1737756935       27.1046448717
 Br        17.8800657013       14.7497050013       30.2880017303
 Br        12.0210542421       11.9788688346       20.9502664897
 Br        10.5261840663       14.9284423088       23.9872921439
 Br        11.8494335363       12.2036087782       33.1162840504
 Br        33.8280446780       29.7097628027       16.7472774863
 Br        33.0495637612       24.3521204976       24.4083276916
 Br        12.4514363330       24.3572002607       33.0143684136
 Br         9.1865830799       17.5384057017       12.1254378253
 Br        33.2825013622       17.2705098400       29.5697888866
 Br        14.8882019119       12.4939392493       23.9527826004
 Br        27.1072594481       17.9813756099       10.4878504809
 Br        29.6866827600       21.0589484765       11.7785968837
 Br        17.9680022146       11.5043435092       20.9765595699
 Br        18.5106528815       14.7167209807       23.5538642719
 Br        27.1039555047       11.6545306647       12.0913380820
 Br        14.8089928172       11.9530129160       11.7242507057
 Br        29.6866369291       14.9656616976       11.8529951058
 Br        18.5088366042        8.6646365709       30.3524802104
 Br        10.3109580205       23.7922452869       15.1087724252
 Br         8.5310975724       29.9979408083       12.4131454591
 Br        11.6930259788       29.6824467744        8.9631142016
 Br        33.2043042584       30.2134706854       29.5098757705
 Br        21.2011625805       17.7538478061       12.4574248740
 Br        23.0812718986       17.6934503099        8.8414579850
 Br        24.0326315671       20.9621358258       11.7715421835
 Br        20.9773672172       12.0806155672       12.2647865558
 Br        24.2243564805       14.8267198966       11.8340034034
 Br        11.2416580323       26.8368512816       17.8613517137
 Br        23.9699657886        8.8320542118       10.7480490809
 Br        17.8656824620       14.6885910936       12.2464283629
 Br        14.9722148414       24.2448879651       11.8966014384
 Br        18.2683677463       26.7720986544       18.4533487087
 Br        20.8598687555       29.7293386930       11.7190208121
 Br        23.8863729452       29.8485087408        8.7460130700
 Br        21.0286777673       23.8715302865       11.5305620352
 Br        24.0388716862       27.1568102096       12.2457299372
 Br        27.2720633293       17.2351946722       18.1021337240
 Br        30.0873462370       17.9909416912       14.5978891453
 Br        29.6372715036       20.8742601779       17.8518480409
 Br        27.1579227741       12.3037985131       17.7181173495
 Br        30.0663120932       12.1878764265       14.7771784018
 Br        31.4902027878       14.9640064923       17.7799801049
 Br        30.5992296943        9.0030308576       17.5689076117
 Br        17.9060120100       29.6421213020       32.8897116191
 Br        27.0717077997       30.1892950493       11.7528387857
 Br        27.0254052669       29.3182786409       17.6293995734
 Br        30.2156240413       29.6470926315       14.8717632432
 Br        27.1194065426       24.2088316550       17.9002353628
 Br        29.6658456423       24.0670254912       14.7811910250
 Br        31.0707520871       26.8690549662       18.1696339978
 Br        27.1501648977       17.9573353095       23.6478375565
 Br        30.7691207188       17.6834495375       20.7018718710
 Br        30.4679196076       20.7979235959       23.8123488829
 Br        26.8777374977       11.6767524067       23.9124509297
 Br        29.7354443914       12.0318395059       20.8630964688
 Br        29.7612070356       14.6811394702       23.9128337131
 Br        30.0534449059       33.1973449642       12.6800134595
 Br        26.9621075811       24.2058172641       11.7567853188
 Br        12.2864470851       17.5459031599        8.8371649316
 Br        15.2909001631       30.2774737406       29.6662799079
 Br        18.3531205271       29.4487372010       26.6883470888
 Br        27.2471657244       30.5605386087       23.6488283206
 Br        30.8942379712       30.3082567637       20.8664488614
 Br        30.2058966864       33.2547086437       24.3451739976
 Br        27.1617106062       23.1911124024       23.4991013501
 Br        30.1763609984       24.0056145212       20.8966114236
 Br        29.5170327438       26.8858045455       23.9890447459
 Br        27.2392486671       17.7418009736       29.3274298414
 Br        30.3646026107       17.9604850026       26.7163290243
 Br        30.1435391163       20.8429350908       29.8800037398
 Br        26.9970370669       11.8636838640       29.8995130236
 Br        29.8402860436       11.9375298844       26.9930308099
 Br        30.0892970145       14.6815297979       29.6072309357
 Br        29.9391448914       27.1207141259       11.9219642647
 Br        12.5415970361       30.6968789893       26.7790487328
 Br        29.4326663143        8.5816206622       29.6855886702
 Br        33.1744432579       18.9271530950       17.3286866801
 Br        12.3507739249       20.9496108665       12.5212786499
 Br        10.0833914993       32.7797401817       30.0389569563
 Br        15.3621110885       23.6891821079       30.2406852095
 Br        18.0805357822       24.0841778689       26.8461178081
 Br        18.1854977513       26.9249588649       29.8117518973
 Br        27.1795007994       30.8016921251       30.5700688099
 Br        29.9488669856       29.9373183186       26.8838782500
 Br        27.2606363485       23.6522432835       31.6159834854
 Br        29.7326943890       23.8381895179       26.9984852893
 Br        29.9346610862       27.0875085196       29.6090823134
 Br         8.8588126248       12.6417254150       17.4300860802
 Br        11.9310273042       12.0373223867       14.8700857624
 Br        29.9228588781       17.3358355802       32.7867053553
 Br        12.5588276260       14.7870728251       17.9341470500
 Br         9.3077233370       24.4722194233       29.6392439173
 Br        12.9506166650       24.0417420118       26.9903107359
 Br        12.5291244946       27.0581672434       29.7464852000
 Br         9.2402167819       29.3777620008       23.9653062816
 Br        30.3863413304       29.6373499226       33.0485299940
 Br        12.1803826478       29.3917713960       20.8694791584
 Br        33.0173625682       24.0260533953       11.7768345973
 Br        12.1388228438        8.9242162168       24.3819416659
 Br        12.3570937964       14.8689664951       11.9318311779
 Br        11.5940830081       26.9761083279       12.1804688388
 Br        11.9787707432       30.0704277453       14.9495845335
 Br        11.5150972871       32.8797501957       18.2822479746
 Br        17.9991284668       12.0089145156        8.8545066467
 Br        29.8393253755       12.1833267251        8.6407662583
 Br        17.5174641507       22.8183992409        8.8123222488
 Br        29.8747258228       24.1177500980        8.6739634510
 Br        18.6043181989        8.6881138995       17.9238658624
 Cs        21.3684876570        9.7122743347       20.4845602577
 Cs        20.9106863075       21.0338626797       32.1378073341
 Br        18.8490561480       18.0412916474       32.9591843954
  C        34.7957597124       18.1068029190       11.8917886771
  C        33.3205872950       18.0073334357       11.5285507155
  O        32.7261915262       16.8905157883       11.7274188834
  O        32.7285304971       19.0367199268       11.0757109787
  H        34.8786187149       18.2918727861       12.9741658427
  H        35.2805530427       18.9379033569       11.3678029763
  H        35.3169837716       17.1651822226       11.6804884310
  C        11.2416586776       18.2074916750       34.8918660206
  C        11.3953306772       18.1858118167       33.3799218836
  O        12.0577914753       19.1115829217       32.8098458035
  O        10.8301653456       17.2345748646       32.7329708290
  H        11.3692239352       17.1989895127       35.3050533756
  H        10.2228644290       18.5402498815       35.1385455889
  H        11.9536827979       18.8986796768       35.3551562401
  C         7.1453114748       28.4775763101       29.4553591691
  C         8.5473542023       29.0678031975       29.4639429115
  O         9.1159661317       29.1990474900       30.6090522042
  O         9.1091204044       29.3698541507       28.3701377676
  H         6.6284675989       28.7077302538       28.5171756142
  H         6.5657431660       28.8454535805       30.3105274015
  H         7.2225788441       27.3822652909       29.5459578799
  C        23.8940692118        7.1762196116       18.2077254487
  C        24.6312841060        8.4990664636       18.0061363306
  O        25.6769341179        8.5305656024       17.3142784705
  O        24.1104756160        9.5197059886       18.6201691631
  H        22.8576980718        7.2673737794       17.8518570044
  H        23.8466003926        6.9346878867       19.2795813321
  H        24.3935472610        6.3621830688       17.6721688107
  C        35.1893320520       17.3849405017       24.0358410724
  C        33.6848752364       17.1689533048       23.9088242336
  O        33.2206840891       15.9924488445       23.9534631281
  O        32.9702994006       18.2303874426       23.7897167684
  H        35.4293943081       17.5600717624       25.0957707150
  H        35.5107771940       18.2688675455       23.4730937771
  H        35.7402211870       16.4966046887       23.7070782167
  C        17.6879644504       26.7052077524        8.0700774123
  C        17.8048805389       26.8519164230        9.5833683765
  O        16.9800967480       27.6378005695       10.1706547054
  O        18.6998391183       26.1641200024       10.1753792062
  H        17.2969708359       25.6993610500        7.8456062023
  H        18.6813548616       26.7518561506        7.6034703700
  H        17.0523368153       27.4844076009        7.6357823868
  C        23.6204193117       34.6711035026       24.1685426709
  C        23.9068276954       33.1887985376       24.3807076377
  O        24.5222168513       32.8085370391       25.4171601835
  O        23.4668749498       32.3939207058       23.4618001045
  H        22.5382116771       34.8287104942       24.0561661880
  H        24.0943382561       35.0068823139       23.2355689436
  H        23.9952500820       35.2693755602       25.0053796337
  C         7.6750022804       23.4577760650       24.5203826736
  C         9.1617630230       23.7075198932       24.3157020447
  O         9.9218244916       23.7077702608       25.3480316893
  O         9.5995202643       23.8699814417       23.1302785830
  H         7.4974152337       22.3712107725       24.4746980335
  H         7.0842705472       23.9250167353       23.7241255079
  H         7.3462644447       23.8112294234       25.5048124253
  C        24.3917576727        6.7801770898       30.1378753494
  C        24.3063417301        8.3037374318       30.0759604272
  O        24.0330876125        8.9405423515       31.1639491646
  O        24.5308749774        8.8651759868       28.9644754017
  H        25.4400494403        6.4731412952       30.0041991917
  H        23.8252264149        6.3394030236       29.3070844014
  H        24.0255851751        6.3860604736       31.0919047558
  C        24.4237088364       16.9641715261       34.5113904245
  C        24.3849252913       17.1940265549       33.0083397828
  O        25.4467148935       17.5560018932       32.4020924445
  O        23.2854826509       16.9860841594       32.3992334812
  H        24.3604610487       15.8830674324       34.7084875794
  H        23.5516135433       17.4313237876       34.9867625355
  H        25.3477736243       17.3519352922       34.9531134503
  C        17.2560554061        7.0087148821       23.8973608240
  C        17.4049499118        8.3970408435       24.5182042318
  O        18.0454863132        8.5339514693       25.5911812500
  O        16.8155577739        9.3564614474       23.8726261201
  H        17.6754360970        7.0122179829       22.8812899866
  H        16.1916990913        6.7480275314       23.8074698222
  H        17.7653783702        6.2508006667       24.5016165668
  C         7.3458813988       17.1992224351       17.9191580417
  C         8.8102830670       17.4143781908       17.5509443507
  O         9.1075589994       17.8747988119       16.4141023819
  O         9.6701502062       17.0643737954       18.4507739460
  H         7.1472619273       17.5551829383       18.9382918446
  H         7.1261110126       16.1205169059       17.8972971144
  H         6.6838909781       17.7048851775       17.2082180493
  C        24.6714333244       28.6308211660       34.3037152231
  C        23.4442142190       29.3984914269       33.8154828345
  O        22.4863713648       29.6100991669       34.6027254619
  O        23.4562913071       29.7815633828       32.5724059782
  H        24.6358146315       28.4773915880       35.3872471472
  H        25.5845032485       29.1751902899       34.0255104765
  H        24.7010674473       27.6521191278       33.8005356948
  C        17.9508403899       34.4615403350       17.4231388029