      84
 i =      173, E =     -3037.4682460318
 Ga        16.6432128131       14.2341764350       11.5856923671
 Ga        13.8181548466       16.4993507589       11.1320807101
 Ga        16.3338808574       16.7908856455       13.9364421261
 Ga        16.7366166801       18.8927578255       10.6700539471
 Ga        13.7662081861       16.5759318788       16.6578519127
 Ga        16.8785674868        8.5526834511       16.5684448300
 Ga        13.8412506937       11.6634265432       11.2865849032
 Ga        19.1384664702       14.0803777987       14.4639403765
 Ga        16.6412504137       11.2854282722       13.9236237245
 Ga         8.7843186741       11.3467672413       11.1291577550
 Ga        14.3891210121       19.2079596401       14.0000954374
 Ga        16.7221548794       16.6516174341        8.6341873882
 Ga        13.9966230226       14.0721651174       19.2104474116
 Ga        11.3636166701       11.0485505473       14.0000663753
 Ga        11.1838200828       13.9173986967       11.5975951580
 Ga        14.0881497420       11.2737929631       16.6353463092
 Ga        11.1926863912       10.9719898272        8.7859980179
 Ga        11.1248631339       13.7550153133       16.7121648355
 Ga        19.2117843592       16.0994696423       11.1192587284
 Ga         8.7168872473       14.2199836891       13.6805754353
 Ga        14.2241922986       13.5371652393        8.8510148631
 Ga        13.9103415082       13.9968543070       14.1537651085
 Ga        16.7206156043       13.9259325978       16.7153698757
 Ga        16.0197304461       10.7386912441       19.2117814005
 Ga        11.2868189421       16.6476288540       14.1607899630
 Ga         8.9511752700       17.1188416203       16.3228575531
 Ga        11.0439095003       16.6497642412       19.1271859050
 Ga        14.2364787885        8.7858113670       13.6187866933
 Ga        18.9723108110       10.7378341242       16.8847622923
 Ga        11.8323207652       19.1333304410       17.1010731147
 Ga        11.3592680406        8.7863456600       10.8826271449
  P        12.5771050750       15.3229217682       12.7506806642
  P         9.9004207066       12.4119152524       12.8278470251
  P        15.2750620903       12.7629406564       12.7433880304
  P        15.3297776876       12.6606174573       18.0516939137
  P        15.3414238885       15.2245721846        9.9514754903
  P        15.2928866189       15.3381045764       15.4690859377
  P        18.4231350755       17.6703724473        9.7286475156
  P         9.9315610027       15.2312751078       15.3762798529
  P        18.0028331833       15.5019648333       13.0457863578
  P        15.2161230046       17.9398980625       12.2840973750
  P        12.4386942005       15.1915065014       18.0015135940
  P         9.9454407009       18.2802275706       18.0532428383
  P        12.7274404756        9.9683665339       12.4113535862
  P        12.3098374980       12.7708710785        9.9426748568
  P         9.5764094299        9.7412322328        9.8375570860
  P        12.7481278675       18.0605409694       15.2523175940
  P        17.9744830833       12.4191665670       15.4610944376
  P        12.5704769785       12.4828713673       15.3958236500
  P        15.3765376091        9.8702889580       15.2631831053
  P        17.7368815961        9.5499153338       18.4086305363
 Cl        10.9514805387       11.5212199538        6.7711391312
 Cl        14.2196323183       13.5100627783        6.7639201052
 Cl        16.9872861958       20.9357637479       11.1256597694
 Cl         6.8552266966       17.2203488800       16.3997076284
 Cl        21.2864034389       15.7997003693       11.2929996240
 Cl        18.5000875159       13.7678937242       10.3882974050
 Cl        13.9369391497       18.1687058171       18.2942933547
 Cl         9.2890383162       15.2881743477       11.5941495890
 Cl        10.8515089734       16.3149371239       21.1789165234
 Cl        16.4321670364       18.6992510163       15.2093057325
 Cl         9.8868751148       12.6113756635       18.0062470712
 Cl        15.4262663156       18.6294874700        8.7748277486
 Cl         6.9178313466       12.1870033930       10.6840561451
 Cl        11.3213420843        6.7332440148       11.3410958941
 Cl        14.7848171303        6.8699388864       13.0468000243
 Cl        20.9741077301       11.2557341147       17.2727521652
 Cl        12.7001361017        9.2005362276        8.9776555045
 Cl        16.8658295775       16.0596903765        6.6246782711
 Cl        13.7495793467        9.8655621359       18.3507218604
 Cl        12.2488284063       17.3468654620        9.9566034138
 Cl         6.6393441109       14.2069431505       13.8673776817
 Cl        14.1164606681       21.2747597771       13.9808854360
 Cl         9.5107199292       18.1116564569       14.0992956279
 Cl        15.2957264851       11.5041208217        9.5192405915
 Cl        10.4442048409        9.4919767214       15.1269119018
 Cl        17.6555407773       10.2402240305       12.3611695090
 Cl        18.8841041018        8.9354050910       15.4070313418
 Cl        21.1407173721       14.4728150796       14.8321942183
 Cl        14.3768648056       14.5507987481       21.1917329225
 Cl        12.1729159690       21.1846807405       17.3611710466
 Cl        16.3560853771        6.5166401741       16.4890114645
 Cl        15.5760979263       10.8002927254       21.2662754561
 Cl        18.1129363588       15.2294968618       17.6892338513
