2839
 i =       21, E =    -88341.3840805553
 In        41.2961920075       23.5938083439       46.9644215556
 In        47.1885743185       47.1254378251       29.3440201392
  P        42.9105258338       40.0386881526       10.3301705804
 In        41.3028140309       41.3025324011       35.4034304141
 In        47.1152960091       23.6009317037       17.6393032973
  P        45.5632766816       22.1525241176       30.9566132978
  P        45.5645665370       22.1541071287       36.8420059164
 In        49.7346681649       20.6522666153       35.4047386405
 In        47.0434042143       23.6003369847       23.5300211408
  P        45.6309572436       22.1004844059       42.7578442261
  P        45.8878043048       21.9050591460       48.6727363246
 Cl        45.4122392788       25.5691866231       10.1266647207
 In        49.6589063459       20.4961447064       41.3765689476
  P        45.6477022525       25.0981030374       16.1986150635
  P        45.6394730313       25.1095576670       22.0715192936
  P        45.5421381117       25.1058573536       27.9991691397
  P        45.5588822231       25.1047630378       33.8711068716
 In        41.2933463000       41.2928187626       29.5077801081
 In        44.1867220639       20.6524624679       17.6928157320
  P        45.5835034528       25.0688872522       39.7735359576
  P        45.7039372905       25.0476436833       45.6969411931
 Cl        45.4573943903       24.9830223542       51.2293901913
 Cl        44.9354624448       28.6036947463        6.9486011388
 In        44.3274900041       35.5688877290        9.2614581597
  P        45.6638422016       28.0540039239       13.2665736932
  P        45.6504037616       28.0473191257       19.1308192584
  P        45.5437830555       28.0553754523       25.0479334897
  P        45.5760486962       28.0327311853       30.9243923848
  P        45.5848602753       28.0020387029       36.8268053941
  P        48.4753095787       36.7786953776       30.8369287506
 In        46.9586938307       23.6749299002       29.5053442699
  P        45.6680445659       28.0089530695       42.7326616738
  P        45.7204399075       27.9317899649       48.6191288748
  P        45.6473491685       31.0611463107       10.3260043848
  P        45.6563480127       31.0053612796       16.2248236103
  P        45.5487952452       31.0061584995       22.1013048136
 In        49.9906730265       23.6024104783       20.6371839843
  P        42.7510480503       39.8055176132       16.2241204918
  P        45.5556525156       30.9669842400       27.9778962191
  P        45.5582371683       30.9483716645       33.8456097231
  P        45.6804103689       30.9536755170       39.7678937927
  P        45.7316084135       30.9464632849       45.6665973518
 Cl        44.9865750994       30.3949728081       51.9852766756
 In        49.8079196953       23.6968443771       26.6311429910
 In        41.2970973543       41.2984152463       41.2813028796
 Cl        45.4195842737       34.0237381487        7.7380041674
  P        45.6670834410       33.9697582039       13.2859148327
  P        45.5679740482       33.9278789623       19.2057878542
  P        45.5494986020       33.9282622420       25.0349138109
  P        45.5412068627       33.8959815915       30.9118542844
 In        49.7303199043       23.6998814019       32.4429526838
  P        45.8508899641       48.6096351505       21.8076394140
  P        45.6716888996       33.9049029202       36.8023538170
  P        45.7343442957       33.9020386326       42.6976557767
  P        39.7594416886       30.9695012031       16.2256141914
  P        45.8522315363       37.1080497026       10.3315554927
  P        45.5949403421       36.8867905726       16.2156721162
  P        48.6537327451       36.7978948252       36.7233557882
  P        45.6976401139       48.6251289081       27.8760795738
  P        45.5575499777       36.8372713993       22.1183867388
  P        45.5518155364       36.8345775966       27.9772275379
  P        45.6688316289       36.8578557027       33.8553251431
  P        45.7397358543       36.8497227637       39.7408341416
 Cl        45.6732641188       36.4158377781       45.6697275676
 In        50.0561851355       20.6533690013       23.5905985175
 Cl        45.4319856945       48.8318335465       33.4784870100
 In        44.0786964715       29.4984394631       26.5402640981
 Cl        45.4752480808       39.6636050139       13.4332527686
  P        45.6319401072       39.8201291772       19.1310359095
  P        45.5624168546       39.7889266406       25.0291127105
  P        45.6686300626       39.8060561407       30.9095730264
  P        42.6898579735       39.8234782449       22.0795832853
  P        45.7311464985       39.8115916262       36.8061702099
 Cl        45.7507600884       39.4478928333       42.5779334033
 In        41.2838483812       26.5427335663        8.9357141980
  P        45.7975911454       42.8513292831       16.0780217782
  P        45.6485646435       42.7187469527       22.0420637294
  P        42.7119394958       39.8031718607       28.0138858336
  P        45.6613332127       42.7547325381       27.9723531644
  P        45.7339027258       42.7587582450       33.8459441784
 Cl        45.7477415500       42.5252512763       39.5679735785
  P        42.7646309813       39.8093307984       33.9062887605
  P        39.7541586689       31.0513605846       10.4836921808
 In        41.2901664124       44.1671549745       20.5757713755
 Cl        45.4926453389       45.4695376848       19.2598654719
  P        45.6866500342       45.6826923839       24.9722617647
 In        46.9540001724       23.6714892186       35.3956678274
 Cl        45.4429509006       51.1963072227       24.8845075673
  P        45.7245454214       45.7122004170       30.8966101329
  P        39.7389155313       30.9810711968       22.1085804341
 In        46.9674304452       23.5986624806       41.2871105776
 In        49.9770212659       47.2831835666       26.3052672989
 In        49.8175173217       41.2122107322       26.3108252926
 In        47.2047922952       23.5141232012       47.1984639752
 In        44.1792052232       35.3936374574       14.7498759742
 In        44.0861961011       35.4001802062       20.6483856868
  P        45.6683409752       19.1974038658       22.1329587139
  P        42.7623812378       16.2648062758       33.9229122662
  P        39.7624123351       33.9093221386       13.3743934387
  P        45.6541908425       19.2000419164       27.9816100180
  P        42.7476545141       16.2729557855       39.8733837480
  P        39.7580731545       33.9252477943       19.1840123833
 Cl         7.1513042218       10.9984970663       27.4398404557
  P        45.5580906121       19.1984931515       33.9153590848
  P        42.9137625469       16.1304215751       45.8068875412
  P        39.7559743633       33.9107988929       25.0661512219
 Cl         7.7580810962       13.5378773330       24.9060660599
 Cl         6.9612695256       14.0720797946       30.3366312975
 In        41.2841825221       26.5521679667       14.7476562220
  P        39.7671759638       33.9132029749       30.9651062782
 Cl         7.8074883730       16.3580748119       22.1489843370
 Cl         7.7263156014       16.5159478472       27.7918193462
 Cl         6.9237120588       17.0141534913       33.2694424398
 Cl        42.5495609169       19.5081434052       13.1975941444
  P        39.8147531578       33.9160367454       36.8668056927
 Cl         7.8350287126       19.2309580956       19.2575266004
 Cl         7.8109970942       19.3502410632       24.9808296244
 Cl         7.7031949124       19.4451445504       30.7430868923
 Cl         6.9095099224       19.9563197381       36.1788142338
  P        39.8149849759       33.8966597439       42.7463351961
 Cl         7.8513884886       22.1029232603       16.3989885658
 Cl         7.8284380988       22.1145492863       22.1904204194
 Cl         7.7572423972       22.2545389659       27.9400688916
 Cl         7.7037636744       22.3872579861       33.6682378116
 Cl         6.9161075878       22.8729111198       39.1215257520
  P        39.7649222652       33.8594320556       48.6248321468
 Cl         7.7503413834       24.8979270428       13.5507652207
 Cl         7.7756937981       24.9928485163       19.2887049932
 Cl         7.8303553317       25.1407890659       25.0423596320
 Cl         7.8323671911       25.2009945319       30.8330352470
 Cl         7.6777307012       25.3296316882       36.6407283060
 Cl         6.9099902652       25.8009531812       42.0227259078
 Cl         7.1278999744       27.4283718669       11.0406406064
 Cl         7.6950679783       27.8047794521       16.4540860626
 Cl         7.7938355631       27.8951058862       22.2539597891
 Cl         7.8500911087       27.9926282292       28.0399633667
 Cl         7.7767078574       28.1353081209       33.8313018843
 Cl         7.7051639283       28.2961186739       39.5768101921
 Cl         6.9519872011       28.6360773036       44.9575598668
 Cl         6.9662087802       30.3569190970       14.0208026923
 Cl         7.6828940525       30.7396250174       19.4032820112
 Cl         7.7737628660       30.8974027357       25.1228035552
 Cl         7.8368806549       31.0308804506       30.9240816661
 Cl         7.8144663712       31.1149275695       36.7626499150
 Cl         7.6751762558       31.1521000992       42.5139073546
 Cl         7.1141021829       31.5323141021       47.9630037948
 Cl         6.9123408820       33.2635673084       16.9614501482
 Cl         7.6762054719       33.7030757601       22.3170553505
 Cl         7.8278983689       33.7894457431       28.1374796833
 Cl         7.8496259236       33.8941511910       33.9786022591
 Cl         7.7891427403       33.9839670090       39.7211334590
 Cl         7.7889891764       34.0540011742       45.4349065948
 In        44.2573714115       29.5036289010        8.9335352341
 Cl         6.9184480415       36.2045665900       19.8711706030
 Cl         7.6986416036       36.6110890078       25.3213140809
 Cl         7.7778583038       36.7685199021       31.0828373918
 Cl         7.8334293403       36.8431609267       36.8401555706
 Cl         7.8865100187       36.8236630469       42.5838872217
  P        42.7666775735       13.4105257670       36.9396682307
 Cl         6.9012769456       39.0992793879       22.8777985774
 Cl         7.6774601674       39.5818992173       28.2688415891
 Cl         7.7588203303       39.6937114735       33.9454793076
 Cl         7.8561007768       39.6964728751       39.7000822607
 Cl        42.5168675043       51.2665604247       27.8032887660
  P        42.7542784497       25.0592103085       42.7481119335
 Cl         6.9155275175       42.0342014303       25.7881166248
 Cl         7.6890379725       42.5299300726       31.1426231259
 Cl         7.8583501272       42.5684819280       36.8254691559
  P        42.8963671285       13.1730563508       42.8923068602
  P        42.7464662448       24.9935999794       48.4915858987
 Cl         6.9485194831       44.9949654277       28.6384023853
 Cl         7.7537023704       45.4325786185       34.0297656481
 In        47.3536767678       44.0901006687       20.6557717973
  P        42.6762635026       28.0969489106       10.3347614288
  P        42.7091591770       28.0636653807       16.2164890265
 Cl         7.1163945891       47.9660600824       31.5276892559
 In        47.1082041882       44.2442067342       26.4688345006
  P        42.6948805372       28.0343350740       22.0653002239
  P        42.6459244539       28.0175663818       28.0084250928
 Cl        47.9574666613       51.8637182049       27.4278926661
  P        42.6703211738       28.0311035356       33.8978093457
  P        42.7173125803       28.0162716029       39.8016734210
 In        47.1227632136       26.5585576480       14.7452225465
 In        47.1069475421       26.5536745700       20.5722103651
 Cl        51.1239726320       39.6973442485       19.2039668580
 Cl        51.1548113425       39.6316760994       24.9485445137
 Cl        51.3101054873       39.5445190408       30.6978255110
 In        44.1723732108       20.6495703044       23.5256451228
  P        45.6299947117       19.1772729547       39.8456683771
  P        42.7362140474       19.1883360199       19.1724452071
  P        39.7926718465       36.9084742769       10.4811128355
 In        49.6652684054       23.6001376436       38.2712546362
 Cl        45.5225669664       19.3484144028       45.4999775742
  P        42.7135025503       19.1995791620       25.0315727493
  P        39.7851109891       36.8674948896       16.2508893740
 In         9.0281899252       11.7187736114       26.3181315224
 In        49.7318220331       23.4343031867       44.3231875420
 Cl        52.0930250977       33.1904846395       41.9538987144
  P        42.7145456652       19.1970198354       30.9180123175
  P        39.7596537592       36.8550314510       22.1161491147
 In         9.2685274406       14.6695541933       23.3584981834
 In         8.9376267575       14.7515681497       29.4132100590
 In        41.2276460876       26.5484917433       20.5840049076
  P        42.7107991723       19.1846588449       36.8947937785
  P        39.7797603263       36.8670415326       28.0259790693
 In         9.3527707325       17.6271314417       20.5647086710
 In         9.1787345583       17.7805992674       26.3214310233
 In         8.9360522775       17.6995418646       32.4390419026
 Cl        48.9460292508       36.2994824862       42.4179951879
 In        41.2963442302       44.1706925957       26.5526735559
  P        39.8126808693       36.8665256853       33.9200775080
 In         9.3366009351       20.4200617914       17.6174227365
 Zn         9.1871846969       20.6559867407       23.5277861626
 In         9.1808711039       20.7252324868       29.3441099051
 In         8.9351914152       20.6534451594       35.3924989672
 In        50.0558557336       26.5550681893       17.6286762055
  P        39.8118204247       36.8554023267       39.8066962006
 In         9.2637398749       23.3511140787       14.6684347935
 In         9.2591038818       23.5165798965       20.7310379193
 In         9.2705437575       23.6785091344       26.4597126614
 In         9.1759791866       23.6949618338       32.2906689299
 In         8.9355239527       23.5996291569       38.3464692152
 In        49.7409386864       26.6372201891       23.6703463497
 Cl        51.1271458293       36.8103961430       16.3613555384
 In         9.0262314811       26.3135491194       11.7153294667
 In         9.1825372680       26.3941127052       17.7134234250
 Zn         9.1806586939       26.4791586500       23.6033573819
 Zn         9.1921110044       26.5666642432       29.4257462300
 In         9.1822955254       26.6356180496       35.3125194188
 In         8.9364404599       26.5528090623       41.2946895664
 Zn        49.7430624634       26.5608066391       29.4305210855
 Cl        44.9654114120       52.0320294085       30.3557361561
 In         8.9417345161       29.4157611491       14.6710708745
 In         9.1141991750       29.3362947832       20.7270492646
 In         9.2682036616       29.4150227015       26.5584650732
 In         9.2741113136       29.5768192046       32.3595566865
 In         9.1799925359       29.6550700912       38.2573830087
 In         8.9443141571       29.5023829710       44.2608691328
 Zn        49.8023794659       26.5486887032       35.3122802147
  P        42.7587083069       39.8119593426       39.7781780480
 In         8.9329301269       32.4385373580       17.6243554859
 In         9.1807052700       32.3608250074       23.6067129002
 Zn         9.1884076357       32.3710726927       29.4948757532
 Zn         9.1908017993       32.4537589838       35.3885612133
 In         9.1886472028       32.5359108803       41.2848843664
 In         9.0289284680       32.6060910093       47.2799663803
 In        49.8100989912       20.7281273118       29.5702522039
 Cl        42.5631650642       39.4829174618       45.7263522879
 In         8.9344235082       35.3999311721       20.5734332339
 In         9.1747711191       35.2427867303       26.6350596075
 In         9.2606018849       35.2400825429       32.4527147992
 In         9.3360534087       35.3956982017       38.3309222264
 In         9.3331040576       35.5721979193       44.3286698464
 In        41.2937246927        8.9337881902       26.5572449878
 In        41.3014717100       44.2400895486       32.4501884141
 In         8.9304840965       38.3398850645       23.5943834106
 In         9.1842415968       38.2631150004       29.5775740962
 In         9.2643967399       38.3415044351       35.4059688175
 In         9.3420942243       38.5057843811       41.3847706748
 In        41.2833466773        9.2578079789       32.6106787871
 In        44.0844288825       35.4001240172       26.4840031918
 In        47.2823813870       49.9682388232       26.3088437980
 In         8.9380452842       41.3057978364       26.5518167304
 In         9.1879970452       41.2895666342       32.5296284913
 In         9.3397570854       41.3787913771       38.5040133335
 In        41.3807399417        9.3467113404       38.5124256145
  P        42.7407805730       28.0056834081       45.6633161826
 In        41.2987110421       44.2447258430       38.3362900264
 In         8.9520342428       44.3250772709       29.4968369930
 In         9.2680096965       44.3279268615       35.5695337769
  P        48.4502933048       34.0005271533       16.2299538925
 Cl        42.5373182295       27.8746657959       51.2909713543
 In        44.1588625655       35.3994608223       32.4457249904
  P        48.4647572941       33.8337269672       27.9918210893
 In         9.0289717722       47.2837111925       32.6057815281
 In        47.1979919388       47.1928247524       23.4315231620
 Cl        42.4899155430       31.1254366146        7.6553618955
  P        42.7264500869       30.9924363405       13.3223099911
 In        47.2780309480        9.0969801519       32.6157355631
 In        49.9935434299       17.6254500714       26.4755826794
  P        42.6792005691       30.9844447425       19.1592949598
  P        42.6447568726       30.9649725461       25.0569151282
 In        46.9543790942       26.6262242974       26.5564918115
 In        47.0213931322       26.5512333248       32.3785156224
 In        44.0872239045       29.4945568110       32.3794822306
 In        50.0639310672       41.3027166922       32.3634637888
 In        47.0138700743       26.4828900706       38.2628775670
 In        41.2231511579       26.5468607328       26.4801808032
  P        42.7547576481       19.1997996916       42.7531293752
  P        39.7922195880       36.8403964583       45.6605534097
 Cl        11.0631596167        7.1241894184       27.4341644552
 Cl        45.6138679731       22.5378907848       13.2370083224
  P        42.9585731568       18.9386848564       48.6031081168
 Cl        39.0505116686       36.1176247560       52.1001010576
  P        10.2720199662       10.2678871224       24.7506464716
 Cl        16.3848768491       42.6436144672       16.3809077855
 Cl        42.3835711024       22.6601501782       10.0497941213
 Cl        39.6928869779       39.6940092983        7.7839645817
  P        10.3312228020       13.1046895815       21.8379041291
  P        10.3457077000       13.3330725090       27.8893438167
 Cl        10.1590198362       13.5595927991       33.5125271066
  P        42.7396226061       22.1490930549       16.1999840878
  P        39.8496423115       39.8277819676       13.3448141626
  P        10.3015907667       16.0689212808       18.9619235268
  P        10.5106908837       16.2520351431       24.9289034425
  P        10.3418104071       16.2868457943       30.8959194061
 Cl        10.0717271365       16.6283779043       36.4564233081
  P        39.7899251708       39.7858475351       19.1686326379
  P        10.3558375677       18.8883101587       16.0566702117
  P        10.4331620733       19.2477905611       22.1579777183
  P        10.5119795969       19.2241336963       27.9025377039
  P        10.3481409350       19.2497744937       33.8530635636
 Cl        10.0509080355       19.6600567346       39.4522822076
  P        39.8028123039       39.8031534220       25.0601848986
  P        10.3229574777       21.8282786549       13.1107118470
  P        10.5033071502       22.0535357832       19.1817514940
  P        10.4419206741       22.0916146114       24.9700020018
  P        10.5213677937       22.1869593268       30.8614079873
  P        10.3471408021       22.2021343905       36.7996933800
 Cl        10.0673528328       22.6664089811       42.4719207299
  P        10.2698961473       24.7487430106       10.2686401657
  P        10.4933888460       24.9354893216       16.2389586382
  P        10.4569883437       25.0993017431       22.2189754377
  P        10.4676311975       25.1800320643       28.0287581070
  P        10.5087666459       25.1502185278       33.8279866694
  P        10.3484798761       25.1486811096       39.7483828810
 Cl        10.1878331938       25.6205941821       45.4615027644
 Cl        11.0178588753       27.4306575987        7.1360013941
  P        10.3680507271       27.8795125773       13.2995900126
  P        10.4928760261       27.9140904673       19.2254331348
  P        10.4491352690       27.9245485427       24.9847033464
  P        10.4486955362       27.9975543481       30.8514654822
  P        10.5103101648       28.1227898139       36.8015163055
  P        10.3569790008       28.0930965021       42.6934902762
 Cl        10.4337181351       28.5367386193       48.6084176146
 Cl        10.4290107784       30.4911757047       10.4140713646
  P        10.3339767178       30.8606456563       16.2600644166
  P        10.5034094164       30.8788385398       22.1304040410
  P        10.4489269807       31.0000422914       28.0608565251
  P        10.4482362526       31.0757681277       33.9505248835
  P        10.5365047163       31.0857973480       39.7580952958
  P        10.3485303827       31.0533038527       45.6633092233
 Cl        11.0620196833       31.5338533368       51.8935335255
 Cl        10.1446360022       33.4767540525       13.5890086282
  P        10.3438709354       33.8543923332       19.1788374480
  P        10.5179363699       33.8398361501       25.0937438477
  P        10.4753826660       33.7912921200       30.8844901206
  P        10.4844420449       33.8636769357       36.7677583154
  P        10.5260684325       34.0017894433       42.7375575824
  P        10.2701440656       34.1801654715       48.7271769398
 Cl        10.0706735890       36.4762549721       16.5760966615
  P        10.3257220913       36.8011898879       22.1598292217
  P        10.5067234677       36.7936660258       28.0670880381
  P        10.5437110521       36.8053304040       33.9166135214
  P        10.5599733831       36.9067777945       39.8244097771
  P        10.3799485576       37.1254418891       45.8561404762
 In        41.2830744064       11.8040421535       23.5960078754
 Cl        10.0612266686       39.4588352892       19.6231271307
  P        10.3356774597       39.7574668643       25.1292645148
  P        10.5104333722       39.7520914702       31.0546677295
  P        10.5488059473       39.8169125926       36.8931650558
  P        10.3742750670       40.0424064770       42.9315108524
 In        41.2909623182       11.8883309092       29.4981084610
 Cl        10.0697008013       42.4739552238       22.6380510207
  P        10.3549593264       42.7246558188       28.0864554874
  P        10.5102922672       42.7413088635       34.0075251737
  P        10.3553723793       42.9213815568       40.0525644607
 In        41.2851300423       12.0457201860       35.4700943296
  P        42.6577028204       30.9849058008       30.9361968814
 Cl        10.1784518306       45.5098651592       25.6238730502
  P        10.3701737789       45.6949620165       31.0509212680
  P        10.3452597226       45.8578269429       37.1067528073
 In        41.3774015465       11.8870637202       41.3819098911
  P        42.7179670983       30.9584855940       36.8532790486
 Cl        10.4053198729       48.6342297737       28.5372976857
  P        10.2741159350       48.7267936316       34.1795954999
 In        41.3737000447       41.3716611200       11.8770539176
  P        42.7607602635       30.9608881101       42.7541910153
  P        42.7446538099       30.9021114664       48.5946511083
 Cl        11.0302426267       51.8867533812       31.5320431524
 Cl        45.5174290653       13.5419484633       39.7030911374
  P        42.7322687604       34.0073747040       10.4915958279
  P        42.7102028836       33.9371993976       16.2556649634
  P        42.9050841009       42.8684906753       13.1311413486
 Cl        52.0982379146       39.0273149225       36.0958858966
  P        42.7367296197       42.7283285841       19.1182222834
  P        48.5247816322       33.8902005595       22.2080707623
 Cl        51.1163136301       42.5784058020       22.1063156032
  P        45.6793404952       22.1571177918       19.1705744558
  P        42.7170175557       22.1529868288       22.0802419808
  P        39.8121616669       39.8131220716       30.9750095609
 In        11.7157861484        9.0297037119       26.3183603987
 In        49.8146012658       26.4623272897       41.2267130915
 Cl        51.1381713376       36.8802902846       22.1887880623
  P        42.6970162493       22.1336414478       27.9642703184
  P        39.8102744022       39.8124334760       36.8583887806
 In        11.7994226378       11.7984356004       23.4417614155
 In        11.8083135937       11.8775510480       29.4132214643
 In        49.9819226618       26.3933962040       47.2761579154
  P        42.6570305462       22.1242934641       33.9024514741
  P        39.8013333487       39.8015762742       42.7267754580
 In        11.6403038810       14.8456136934       20.6600314938
 In        11.8856737517       14.7522019415       26.4823563415
 In        11.8066637684       14.7632447573       32.4415034852
 In        44.2430190465       35.4011496968       38.3449050256
 Cl        47.9664909793        7.1989977280       31.5117988538
 Cl        39.3838405065       39.3968287943       48.8861567251
 In        11.8728339964       17.5532931433       17.6211282491
 In        11.9677758877       17.7730280225       23.5155338876
 In        11.8819365369       17.6991357496       29.4928349977
 In        11.8135996006       17.7070008308       35.3955768203
 Cl        42.6060995437       16.3865834819       16.3419346989
  P        40.0450957082       42.9072844636       10.3325145265
 In        11.6384675970       20.6500054127       14.8441861206
 In        11.9649456996       20.5759554929       20.6599173510
 In        11.9696148640       20.7296297125       26.4663749708
 In        11.8843986209       20.6513031680       32.4455895061
 In        11.8146075852       20.6543812761       38.3444164102
 In        50.0553699575       29.5691222920       14.6711004425
 In        41.2132274552       26.5502483384       32.4438014025
 In        11.7969568347       23.4374481787       11.7976708972
 In        11.9760025433       23.5204272944       17.7105884464
 In        11.9651023081       23.5951277228       23.6003628011
 In        11.9749110600       23.6820201119       29.4126956914
 In        11.8838416793       23.6034901532       35.3942060985
 In        11.8130272832       23.6006583666       41.2885211345
 In        49.8163184501       29.6551422145       20.7299892318
 In        11.7181018387       26.3127151589        9.0229455250
 In        11.8857897283       26.4834257398       14.7458105550
 In        11.9663973162       26.4669677530       20.7197045488
 In        11.9626542939       26.5469278516       26.4817613899
 In        11.9683008771       26.6319307179       32.3629339601
 In        11.8846851538       26.5535659668       38.3462941965
 In        11.8665519265       26.5574906515       44.1804984214
 In        49.6572971963       29.5805229413       26.5559264285
 In        44.1839016288       17.7003797684       20.6432005294
 In        11.8763402251       29.3503622777       11.8109994471
 In        11.8775615754       29.4899591679       17.6986751946
 In        11.9691334360       29.4198217621       23.6090226459
 In        11.9549109475       29.4969414911       29.4407634609
 In        11.9735408801       29.5793617448       35.3178838258
 In        11.8877506126       29.5009981394       41.2943804010
 In        11.8693381159       29.5758484117       47.1216659411
 In        49.6604547636       29.4198710783       32.2867448180
 In        41.2273290566       26.5557727485       38.3452574564
 In        11.8099605913       32.3728324390       14.7463084302
 In        11.8811284949       32.4463918329       20.5779808187
 In        11.9728598518       32.3667308815       26.5581284255
 In        11.9645465858       32.4418954393       32.4410228528
 In        12.0342283322       32.5183278755       38.2687486895
 In        11.8892482940       32.4435493243       44.2516036252
 In        11.7175378534       32.6105134242       49.9712448330
 In        44.2532565144        8.9422368944       29.5763976611
 In        11.8120327081       35.3981271527       17.6351661496
 In        11.8846248634       35.3974475146       23.5283310581
 In        11.9763952718       35.3168832771       29.5069493960
 In        12.0394500161       35.3297379515       35.4052456934
 In        12.0398215502       35.4038141310       41.2873441986
 In        11.7985452772       35.4869635197       47.2018418991
 In        44.2478264744       35.4011895302       44.1711833629