      92
 i =       22, E =     -2601.6235781059
  P        10.6278589306       13.6202557721       13.5727310122
 In        17.8444653310       11.7685973478       14.8631732396
 Cl         7.0762811242       15.7493110426       14.5393531941
 Cl        15.6847196912       20.3531224562       10.7899613460
 Cl        17.9756305810       19.6058921636       17.1938206661
  P        16.2831385712       10.3846836523       16.3788114032
 Cl        19.0048770306       14.1706280868       20.1251869332
 Cl        18.1620700178       11.5250249415       22.8258452440
 In        14.7988593691       14.8718478372       20.7140250701
 Cl        19.1884965704       10.6019837128       19.1412209282
  P        13.4246960901       10.6837219008       13.5625742080
 Cl        10.1626937165       16.8377409114       12.3135230630
 Cl        15.4162166933       10.8463068151       10.1331411109
 Cl        10.3174334140       19.4342660999       19.3079355326
 Cl        12.9657304375       19.9044008079       13.2101039005
 In         9.1125388119       17.7608088861       17.7607063585
 In        17.4379809417        9.1060433010       18.1598543298
 Cl        21.9690357750       10.0743224291       16.2831701251
 Cl        10.5723359365        7.4713003528       12.0372092995
 Cl        19.0569461264       10.4086262229       13.4537854091
 Cl        14.5850273837       14.4695763024       22.9549984922
 In        11.7722245950       12.8853944883        9.1928268580
 Cl        15.9472886379       22.8381019535       16.1635283655
 In        11.9134217770       11.9986906675       15.1994125924
 Cl         9.5213493826       16.2548309909       19.6640510330
 Cl        13.2497503207       17.7210920531       10.2323743799
  P        14.0960782543       19.2806936090       17.0294618148
 In        21.5196615808       12.1581232753       17.1231872510
 Cl        12.9479649932        7.5829147495       15.1538988194
  P        15.9470762320       13.1184327406       19.3115031387
 Cl        13.2804854503       19.6217285612       20.5746804822
 Cl        23.0265820203       18.2907177503       12.0342915242
  P        16.6350680562       19.2504993329       13.9708447819
 In        17.8453311387       14.8034795742       11.9940287776
 Cl        22.6327710070       13.9036545730       15.4664914350
 Cl        10.8200953487       11.0256907015       10.6069033444
 Cl        12.2072227239       22.8306535160       18.8905000169
 In        11.6885209042       17.6685095667       20.6526842720
 Cl        12.6326511651       10.4915562535       17.5537498515
 In        18.2393270081       17.7577177417        9.4452817169
 Cl        11.7203749400       12.2220452717        7.0243574640
 In        15.9971750088       20.5532724171       15.9917880936
 Cl        20.2696172517       19.4429838300       14.2961691481
 Cl        16.2228319444        7.5652200238       13.4939625549
 Cl        10.1618142747       13.1713449229       17.3055205601
 In         9.2773543584       12.6388583738       11.7672276658
 In        14.9619932026        9.0422635792       14.7178083558
 Cl        18.1671165129        6.9553830209       18.0305991535
  P        13.7247834930       16.6418791554       13.7836119408
 Cl        18.1302871845       18.6510931837        7.3558718136
 Cl        11.0089519009       17.5756857655       22.8257161812
 Cl        22.4852073543       12.8379702368       19.0868011152
 In        20.4746597527       14.9648102734       15.2642422756
 Cl        19.2743198494       19.6679957977       10.9547351762
 In        12.4969357862       18.4762360817       15.1964060003
 Cl        20.3187386955       16.8653179782       16.8360524129
  P        16.6923516104       16.1884593830       16.6094030196
  P        10.7072934777       16.8237584642       16.1446034964
 Cl        18.2020191379       23.0400392236       12.2311939992
 In        14.7252498793       12.1550754351       11.9140494098
 Cl        14.6215519664       15.6486877687        7.1593982624
 Cl        20.4367515469       16.8288149606        9.9262071942
 In        18.3883331554       17.8472272008       15.2730060997
 Cl         7.0041992479       18.5983502854       17.6621296569
 Cl        18.8217196179       13.5338865573       10.3206261726
 In        17.6022830876       11.8575414773       20.6488028435
 In        12.1604173623       15.2838307250       12.4054986274
  P        16.5450093734       16.6986032333       10.8785909890
 In        12.4769325438       20.6487734207       18.3043317135
 In        11.7551251328        8.8822360975       13.3677372093
 In        14.6340365724       11.8463575148       17.6027049964
 In        20.7962970244       17.9128578013       12.3364799892
 Cl        10.1764504345       10.1483513035       14.8668548365
 In         9.3605056652       15.6021227520       14.4042099484
 Cl         7.1638359560       11.8016953494       11.7294934696
 In        14.7143071507       15.8365899871        9.4427921772
 In        14.8922430042       18.3166141193       12.2488238198
  P        13.0885004119       16.0738746559       19.3234940254
 In        11.7707270502       14.9563490913       17.5069092896
 In        17.7673023937       14.3935857474       18.0157078106
 Cl        16.2827877636       16.9253729377       20.3361777274
 In        15.0388269015       17.2805738976       18.1639361752
 Cl         9.6253603138       14.0797996092        9.7396493687
  P        13.4090726253       14.0050959625       10.6488926807
  P        16.3863081104       13.3477174965       13.4463468440
 Cl        11.0248699232       20.4185008257       16.1425775948
 Cl        16.1553919698        9.5927935610       20.1763282152
 In        15.1913944513       14.9687427337       14.9583395353
  P        13.5068891030       13.6314143552       16.2671201743
  P        19.3629257062       16.2185677542       13.4721336024
 In        17.5178728897       20.8807147696       12.3998182858
  P        19.2800609969       13.1342206171       16.4329805255
