    1847
 i =       83, E =    -57098.9257125121
 In        38.4334039179       20.4588895868       43.6488404994
 In        26.5101672156       38.3309396127       44.1293347331
 In        35.3548250760       20.6176582559       29.4033560760
 In        38.3365653131       38.3357723071       32.4513859198
 In        32.4507902378       20.5438426351       20.5533184361
  P        42.5990670087       19.1521577367       28.0501694929
  P        42.5483637823       19.2558192412       33.7063040284
 In        32.4598951450       29.4798504148       35.3569703950
 In        44.1319622230       20.5545022579       20.5496695604
  P        42.8153327553       18.8982375539       39.8652036585
  P        33.8922945137       39.6305549502       16.2113913573
 In        32.3877282168       20.6115658776       26.4877637536
  P        33.8441445516       39.6359441718       22.0835295293
 Cl        42.8850716661       22.5725210252       13.4600328711
  P        42.7011444441       22.1363080692       19.1861061802
  P        42.5477979264       22.1310067944       25.0979085370
  P        42.6254881663       22.0237670113       30.9631620538
 In        38.3244592053       38.2693414969       26.5751856503
 In        32.4503708678       20.6262460959       32.3721062292
  P        42.5747493752       22.0458059535       36.7164232287
  P        42.8515164028       21.7649553575       42.7705815259
  P        33.8397250228       39.7363802682       27.9777387783
 Cl        45.2286132818       25.1816051941       25.1226662466
 In        35.3621857769       20.6250421978       35.2868609735
 Cl        42.6990387324       25.5044403362       10.3616452200
  P        42.6667481993       25.0694362427       16.1769052063
  P        42.5206161206       25.1091319014       22.1707881593
  P        42.6047369772       25.1085431463       27.9201637479
  P        42.6299232203       25.0481534365       33.7224244666
 Cl        45.2285705542       33.7084046827       27.7724971272
 In        43.8950053201       20.6447644122       26.5739560175
  P        42.7187018022       24.9007048126       39.6987141276
 Cl        42.0955162108       24.3961504757       45.9053352231
 Cl        42.0923855000       28.5132033249        7.1295893931
  P        42.6586606453       28.0304685756       13.2178739765
  P        42.5496716985       28.0241233791       19.1757136517
 In        32.4466532279       29.4026505648       41.2326788581
  P        39.8038633360       36.9705195869       13.2026136215
  P        42.5744596420       27.9435410975       25.1684570876
  P        42.6215861980       27.8876398528       30.9481078664
  P        42.7229908005       27.8911785348       36.7460415557
 Cl        42.6588161109       27.4505015640       42.6650375246
 In        29.6364223086       11.6009935943       43.9722186210
 In        35.4348066746       38.3336091917       35.4362665312
 In        32.4480834436       20.6212600838       43.8056516277
 In        35.4322037148       20.6187820310       40.9894272208
  P        42.7667521160       31.1776085142       10.2010353910
  P        42.5362433108       30.9629743068       16.2129744824
  P        42.5055321377       30.9330601551       22.1427354236
  P        42.6147923776       30.9592637382       27.8867088744
 In        35.3643935023       20.5437214044       17.6367381790
  P        30.8702471983       19.1978578111       10.3239013023
  P        42.7103181559       30.8877606332       33.8295038320
 Cl        42.8334671505       30.4801777414       39.5420842536
  P        36.7565204834       27.9475831689       13.2872114701
 Cl        45.3715402896       28.1335045518       16.3714403751
  P        42.7443708562       34.0855320427       13.0828545965
 Cl        46.1094359030       33.2992508491       33.2197113076
 Cl        41.9957515567       45.9222161312       24.4932046008
  P        42.4712532333       33.8603813995       19.1708351041
  P        42.6222595231       33.7899632431       25.0999037597
  P        42.7029636829       33.8539149553       30.9132491737
 Cl        42.8616781194       33.5944963700       36.4722535721
 Cl        30.2240219596       16.8249590931        6.9931393496
 Zn        32.3755651946       32.3031683894        9.1887515419
 In        26.5785268672       41.1584878260       11.7668096589
 In        41.0709434716       26.5765794402       23.6758083446
 In        35.2714495449       23.6050467729        8.8582445695
 Cl        42.6089398694       36.6958455116       16.3554268422
  P        42.5448936172       36.8017550519       22.0622895521
  P        42.7054988905       36.8197327581       27.9790008439
  P        39.6821843342       36.7891964091       19.1251265907
 Cl        42.8639563042       36.6375913564       33.4787361708
 In        26.4949868194       41.1645412437       17.6475451679
 In        29.6396680986       41.3133459969        9.0151306519
 In        35.3515649491       23.5090220011       14.6753848984
  P        42.7328503241       39.9330325265       18.9281461131
  P        39.7489378909       36.7991713212       25.0582771470
  P        42.6797548234       39.7833633190       24.9803636026
 Cl        42.8281032531       39.7215647053       30.4108558855
 In        26.4953015744       41.0816476205       23.5280075367
  P        39.7824220635       36.8423143120       30.9464994902
 Cl        36.5930543638       28.1855998687        7.6998746247
 In        38.5896478177       40.9914961096       17.7974893850
 In        35.3599288780       23.5146186228       20.6146149154
  P        42.7784799295       42.8338512206       21.8282906145
 Zn        43.8893202575       20.6347877575       32.3674805683
 In        35.3548738889       23.5203033786       26.4936329194
 Cl        42.6257944732       42.7765744000       27.4991068642
  P        36.7791682122       27.9480924473       19.1483793780
 In        43.7235355300       20.5314584440       38.3387999827
 In        35.3544359901       23.5933635970       32.3771211226
 In        32.3770651927       32.3591756413       14.8373366906
  P        33.9054100118       39.7801172186       33.9051290479
 In        41.2515614238       32.4641492256       11.7438108144
 In        41.0020949801       32.3762353310       17.6363148161
 Cl        42.9663019150       16.5900649478       19.4874592672
  P        39.7884481540       13.2535305684       31.0102021583
  P        36.7177108651       30.9407365157       10.4976163989
  P        42.7377586788       16.1911756743       25.1045806958
  P        39.8938642856       13.2341763823       36.9706220915
  P        36.7805401841       30.8905309349       16.2492632926
 In        29.4027537328       35.2702909488       44.1403148699
  P        42.6202317426       16.2046825964       30.9965590163
 Cl        33.4901882387       39.8287805218       39.7525224720
  P        36.7369363678       30.8969309588       22.0987246911
 In        38.3336772033       35.3711859882       29.4983344892
 Cl        30.6568241590       22.2741071648        7.6755073251
 In        38.2512315279       23.5207139337       11.7547889375
  P        36.7928245419       30.9683784664       28.0335161208
 In        32.3730178481       32.3689361526       20.6356673186
  P        30.9338878366       22.0891269607       13.2840909975
  P        30.9482412362       22.0504562158       19.1352894809
 In        32.4513614012       20.6244333267       38.1669712710
  P        36.8428039676       30.9485474073       33.8967666834
 In        32.4523355575       32.3787723899       26.5718368653
  P        30.9371568559       22.0835052088       25.0111326051
  P        30.9437346274       22.0768965644       30.9142459694
  P        30.9617166370       22.0868295010       36.7260275936
  P        36.8556292111       30.8948973614       39.8081675530
 In        32.4604565550       32.4535500315       32.4579520912
  P        30.9407904634       22.0797273765       42.4996735595
 In        29.4716969418       14.6730306691       11.7674120007
 In        29.4101920840       41.0773865188       14.6576690304
  P        30.8747663163       25.1322455288       10.4002190457
 Cl        36.1695814278       30.2275107582       46.0817314991
 In        26.4971501160       41.0683134044       29.3954734147
  P        30.9266236519       24.9860983367       16.2385843463
  P        30.9226962142       24.9923907637       22.1125409506
  P        30.9316301323       25.0321576207       27.9662307308
  P        30.9495426022       25.0301429178       33.8261309012
  P        30.9332412530       25.0016046993       39.6416686876
 In        35.4244115601       23.5934206539       38.2469462555
 Cl        30.9470067185       24.9396235809       45.2293942400
 Cl        30.8707498176       27.9726583854        7.7650455512
  P        30.8911272580       27.9457000366       13.3602653399
  P        30.9200337313       27.9212495030       19.1800857686
  P        30.9302532032       27.9573669341       25.0673997829
  P        30.9558639782       27.9845446290       30.9254629269
  P        30.9650736857       27.9644562138       36.7758902994
  P        30.9603517169       27.8326492312       42.5988908971
 In        29.4894129420       14.6658419468       17.6526486662
 In        29.3927685486       41.0661136635       20.5382490065
  P        30.9688117524       30.9233626272       10.4395651437
  P        30.9005678150       30.8946481724       16.2893398001
 In        35.3606761173       17.7134459615       32.3744299011
  P        30.9229370597       30.8881331338       22.1155416172
  P        30.9513701296       30.9150704879       28.0060753494
  P        30.9667107882       30.9401918880       33.8757507899
  P        30.9638439742       30.8982693256       39.7755126984
 Cl        30.7343258588       30.6838160942       45.3099258811
  P        34.1518931785       39.8578468889       10.2528138157
 In        29.3980917130       41.0761461771       26.4271436048
 Cl        31.0143735782       33.7315879609        7.8065986629
  P        30.9016591313       33.8012658422       13.3721656773
  P        30.8932177526       33.8291158773       19.1754984183
  P        30.9475424078       33.8144757093       25.0751202033
 Cl        33.5168727639       13.2167474326       13.2356940877
  P        39.9564458733       10.2747616417       34.1332511824
  P        30.9640850643       33.8749647095       30.9426301266
  P        30.9972438514       33.8786057850       36.8510179184
  P        30.9133860643       33.8151876616       42.7166121572
  P        33.8679248129       13.2041671304       19.1459439202
 In        43.9584218497       35.2614247275       17.8053152498
  P        39.7917527263       21.9985912549       39.7481569631
 In        29.4905783559       14.7405872301       23.5343312240
 In        29.4945124420       41.1537386224       32.4561066928
  P        33.8817740820       13.2471784887       25.0535602230
 In        35.1986871462       43.9592574106       17.7334252303
 Cl        39.5379982531       21.9144128706       45.2423553649
  P        31.0044871379       36.7424064995       10.4692978230
  P        33.8829657654       13.3472101539       30.9193736901
 In        35.3402235143       23.5330958764       43.8119889551
 Cl        39.0651189024       25.6651316923        6.9616778530
  P        39.7188058146       25.0169013341       13.2218877003
  P        33.9068117093       13.3211788242       36.7878272309
 In        43.9771877491       41.3971104031       23.4421316802
  P        39.7150100797       25.0158749645       19.1603243312
  P        39.6395886416       25.0356683572       25.0638119604
 Cl        27.4123384711       10.2670942438       10.2750321920
  P        39.6959755138       25.0096919051       30.9122934858
  P        39.7580813750       25.0266925318       36.7698507193
 In        35.2646565483        9.1120655413       35.1878675081
 In        44.0627092390       23.5178983957       17.5692615859
 In        29.4868845822       41.1650928713       38.3394701941
 In        32.4654453474       32.3865393332       38.3363273304
 In        32.4538424300       32.3732465894       44.1331708581
 In        41.2413047207       17.6362751082       20.6160469804
 Cl        42.6392680352       16.3911649526       36.6037435546
 Cl        39.8279243276       16.4481926233       16.3502472671
 Cl        36.7971512012       33.9627689069        7.7598266862
 In        38.3359703791       29.3978404613       41.2423448468
  P        34.1184909207       42.7056346857       13.0939275333
  P        39.8073501513       16.1430041650       22.0871353684
  P        36.8070932930       33.8537896783       13.3292438718
 In        26.5721193700       41.1462369732       35.4285660156
  P        33.8440102361       42.4749841409       19.1472143169
 In        32.3924845040       35.2806969029       11.9921823005
  P        39.7837024001       16.1920095486       28.0011805769
  P        36.7282833345       33.8271973115       19.1832092480
 Cl        33.6479810892        7.7265096172       25.3103380804
  P        30.9065542617       36.7267821853       16.2250076230
 In        38.2654178467       23.5086509932       17.6406012323
  P        39.7141214020       16.2004012498       33.8738293480
  P        36.7856916736       33.8801863026       25.0677619891
  P        28.0558698513       33.8300630597       10.4917482749
  P        30.9052686361       36.7225365434       22.0996300388
  P        30.9321252475       36.7820148491       27.9890224453
 In        26.4976684791       41.1619905171       41.2429660283
 In        38.3343726020       41.1467841264       23.6001044910
  P        36.8482997939       33.9169483700       30.9718832728
  P        27.9472599583       33.8351032856       16.2354733788
  P        31.0028508140       36.8169986338       33.9217851201
  P        30.9634072367       36.8204806015       39.7926666278
 Cl        30.1974958885       36.1729135809       46.0857328644
 In        32.3768572154       35.2798161986       17.7166020977
  P        36.8850271548       33.8809437735       36.8634388770
  P        33.8430394721       42.5358491753       24.9605224914
 Cl        31.0587739074       39.4635156979        7.7282464757
  P        31.0079766330       39.7132353398       13.2452009105
  P        30.9051206545       39.6189348156       19.1482221196
  P        30.8901442244       39.6478384974       24.9936631264
 In        32.3834797318       35.2856940017       23.6020084455
 In        35.2802171369       26.5003433640       11.7792349783
 In        38.3414533977       35.3607581795       35.3705394777
  P        30.9464034791       39.7483127719       30.9296604793
  P        30.9653282819       39.7770360150       36.8369626491
 Cl        30.3568647299       39.6292711078       42.8801214201
 In        29.4870706447       14.8176400186       29.4742675924
 In        29.5709047901       35.2641256009        9.1119361010
 In        32.4508245460       35.3594170913       29.4884574104
 In        43.8124637636       35.3425119629       23.6043105598
  P        31.2469323100       42.7725056574       10.1760364227
  P        30.9394454054       42.5013579976       16.2096447204
  P        30.8748534225       42.5115446939       22.0776512343
  P        30.8811346111       42.5482602799       27.9021929286
  P        30.8996761563       42.7039220931       33.8443130953
 Cl        30.3712499812       42.8931047170       39.5937683240
 In        32.5286976852       35.3665463532       35.4320921327
 Cl        39.7067322902       36.7484829574       36.5984484665
  P        36.7680539789       27.9856615461       25.0768777396
 In        35.1934048864       40.9164244781       14.4129348502
 Cl        31.0349989510       45.2499831097       13.4634339082
 Cl        31.0031520464       45.2563829373       19.1396181902
 Cl        30.8787452230       45.2710660760       24.9008753193
  P        34.1431576755       13.0572336710       42.7297997446
 In        32.4561274282       35.3445546299       41.2483182015
 Cl        45.3293045904       21.9631580494       39.4742482848
 Cl        30.7153138676       45.3663913268       30.7267116596
 Cl        30.2408649475       46.0863462089       36.1853958965
 Cl        28.5383659027       10.9046621417       45.8691385375
  P        27.9767564332       33.8133969572       22.1053995196
 In        35.3610973413       17.6455534018       38.1826783295
  P        28.0055597580       33.8265094340       27.9827668510
 In        38.3246388715       41.2380027021       29.4807586503
 In        35.3633927612       40.9959937044       20.6211136480
  P        28.0318286874       33.8710290249       33.8719429787
 In        32.3772856640       29.4007880385       11.9257043161
 In        26.5008800472       44.0540198721       14.5825707561
  P        28.0100717335       33.8496184503       39.7506658851
 In        41.0693424924       32.4548408194       23.6749834153
 In        35.3480955854       26.4305580689       17.6563967194
 In        32.3789758013       29.3925336863       17.7157152357
 In        32.3899900839       29.4093191359       23.5944965615
 Cl        33.4446634674       16.4312452504       10.1193628981
  P        33.8545007550       42.7376675027       30.8928431700
  P        39.7916042498       24.9034811103       42.6730621956
 Zn        26.5021018703       43.8835539459       20.6196698741
 In        32.4508234693       29.4729173671       29.4837352562
  P        33.8930615051       16.1436872779       16.1576456495
 Cl        45.2776026614       30.9834301179       13.4956468875
 In        29.4690267794       14.7509471170       35.3410982177
 In        41.2364549384       32.3849988660       29.4795698020
 Cl        45.2326903663       30.9839511778       24.9872035871
  P        33.9071222866       16.1679255966       22.0719868149
 In        35.3495602450       26.4940952769       23.5911265581
 In        29.6347456327       43.9702941480       11.6074288415
  P        39.6989410831       28.0293094035       10.3212411491
 Cl        33.4041547392       42.9962991700       36.5237628064
 In        29.4733955630       14.6533053725       41.1407461939
  P        39.7144163840       27.9389736303       16.1898555778
  P        39.6599246719       28.0027947510       22.1291942200
 In        43.8897595699       23.6785057944       23.6846603452
 In        43.8062330122       23.6119622611       29.4853275904
 In        41.1467336888       26.5021618424       29.4757494036
 In        35.3662583298       41.2407786328       32.4479345188
 In        43.8883743931       23.5155585309       35.1913529603
 In        38.2565954213       23.5184941617       23.5326141953
  P        39.8983437281       16.0275896648       39.7629069407
 Cl        36.4604152552       33.5556006249       42.8979992949
  P        36.8394355783       25.0262187223       39.7420072001
 In        35.3564023047       35.3587197006       26.5732766812
 Zn        26.5019828420       43.8815412111       26.4918915072
 In        29.4086079751       38.1696925698       23.5263571931
 In        35.4249754016       35.4306058205       32.4607389000
  P        27.9683023135       22.0651888723       22.0924183357
 In        43.7117001630       32.4697228014       14.5796096918
 In        35.3510816708       26.5034192077       29.4794546362
 Cl        36.1561738288        6.9465297784       22.7851480042
 Cl         7.1083162760       10.8591436351       24.4841469868
 In        26.5786605196       20.5449239710       14.8162680696
 Cl        39.7710589974       19.5072850875       13.2783871593
 Cl        36.6521595306       36.6121289890       10.4357712314
 Cl        36.6626227816        7.6277701694       28.2456550232
 Cl         7.7215993196       13.4540822857       22.0103530860
 Cl         6.8837896337       13.8815001780       27.3127530284
 In        26.5132459469       20.5566592604       20.6332167184
  P        36.7911584147       36.7564426183       16.2445503360
 Cl        36.8721974284        7.7260206034       34.0518426823
 Cl         7.6895626422       16.2060795737       19.0519622121
 Cl         7.6304956841       16.3695944113       24.8183546253
 Cl         6.8471861461       16.8603305564       30.2288188152
 In        26.5054895684       20.6091894520       26.5079337559
  P        36.7816997556       36.7851779596       22.1062141429
 Cl        42.9283182199       13.5184459642       22.5138121597
 Cl         7.7195299472       19.0073595865       16.2475371198
 Cl         7.7217901547       19.1805368276       21.9893113026
 Cl         7.7172720342       19.3867302278       27.7182012109
 Cl         6.8754549014       19.8308025652       33.1901188685
 In        26.4950136936       20.6120272727       32.3844882073
 In        26.4890311265       43.8171659700       32.3738773038
 Cl         7.7145065297       21.9551077614       13.5205377612
 Cl         7.7305689269       22.0212696230       19.1676146699
 Cl         7.7446679885       22.0684726993       24.9791601252
 Cl         7.6659684164       22.3291628187       30.7121087854
 Cl         6.8475324195       22.7910425427       36.1538903717
 In        26.4875611315       20.5476689520       38.2458912685
 In        43.8101880741       32.3821105763       20.6371455904
 Cl         7.1226395492       24.4399079550       10.9547145123
 Cl         7.6590231522       24.8616484297       16.4040069900
 Cl         7.7115560173       24.9178136746       22.1461636732
 Cl         7.7850981894       25.1516234288       27.8798574584
 Cl         7.7177394583       25.3123787014       33.6472868161
 Cl         6.8771867882       25.7132167992       39.1267654635
 In        26.5810699962       20.6220957636       43.8138505637
  P        27.9827049663       22.0753787848       27.9856666334
 Cl         6.9592896020       27.3621627494       13.9320759692
 Cl         7.6592054572       27.7513518895       19.3467010436
 Cl         7.7663124725       27.9064971234       25.1352027264
 Cl         7.7461248646       28.0593001097       30.9640067205
 Cl         7.6531060344       28.2163477632       36.6454970474
 Cl         7.1224007117       28.5100630489       42.1596177254
  P        33.8918513269       16.2241888644       27.9506319001
  P        27.9739319536       22.0808860927       33.8470509467
 Cl         6.9246188292       30.2434287159       16.8973106098
 Cl         7.6878813543       30.7349701539       22.3000841542
 Cl         7.7642832522       30.9054692061       28.0840486451
 Cl         7.7055163828       31.0380275815       33.8324822131
 Cl         7.7296602865       31.0017269004       39.5567841747
  P        33.8900811696       16.2631532732       33.8548527696
  P        27.9857747639       22.0834168213       39.6289766392
 Cl         6.9157324395       33.1987968452       19.8058115588
 Cl         7.6976357892       33.7034630169       25.2577835327
 Cl         7.7163908140       33.8368279227       31.0016721280
 Cl         7.6893442619       33.9496429823       36.7972504556
  P        33.9223477397       16.1819991700       39.6779386217
  P        33.7967109079       10.3723896792       27.9950373610
 Cl        28.0695637389       22.0783450752       45.2517853458
 Cl         6.9171732508       36.1519566860       22.7508200032
 Cl         7.6892749328       36.6185017971       28.1685748847
 Cl         7.7217337885       36.7672169371       34.0038097234
 Cl        33.9729518502       16.2115748108       45.2976034318
 In        38.3382827578        8.8734400349       26.5787632485
 Cl        27.7988078173       25.0867587263        7.8265089259
 Cl         6.9353520440       39.0937162700       25.6622876351
 Cl         7.7304666983       39.5092558498       31.0532242977
 Cl        33.1547429893       19.7956944570        6.8871056420
 In        38.4292497700        9.2958991455       32.5407049740
  P        39.6642920886       27.9663349873       28.0116809615
  P        27.9492891763       25.0214931257       13.3757472535
 Cl         7.1070811667       42.0866100024       28.5776671856
  P        33.8319026501       19.1311393605       13.2337649686
 In        35.3537603244       43.8223969604       23.4561802270
  P        39.7492476677       27.9784970089       33.8393115539
  P        27.9727556077       24.9964930844       19.1875227257
  P        33.9084838176       19.0663380719       19.1201652784
 In        35.3650451449       26.5210439862       35.3542031749
  P        39.7797723880       27.9243506691       39.7392487781
 Cl        39.1347921166       27.2883086934       46.1110381360
  P        33.8671100663       19.1360253115       25.0161362356
 Cl        33.9420428113       45.2784271231       16.1901949175
 Cl        39.4772115559       31.0045511807        7.7684198421
  P        39.7348262078       30.9344850566       13.2516201730
 In        35.3656868745       26.4929965897       41.2266197616
 In        32.5471051971       38.3399009068        9.2876926896
  P        39.8048123626       39.7960197238       16.0284445826
 Cl        45.2922116538       30.9930462203       19.1869468881
 In        35.2772318382       12.0130405307       38.5175631480
 Cl        43.0022158530       19.6722395706       16.4937648790
  P        39.8078370679       19.1269946917       19.1301588530
  P        36.8201550134       36.8268570313       28.0197576087
 Cl        36.4748339984       10.0989152324       19.4748817382
 In        32.3721874512       38.1846233661       14.7433160991
 In        32.3713932157       38.1654197440       20.6232523350
  P        39.7666481559       19.1086116595       25.0283087609
  P        36.8652601244       36.8718311221       33.9165520328
  P        36.7795304528       10.2925945601       25.1507522826
  P        27.8977018302       10.3735670295       22.1014609483
 Cl        33.8209231026       45.2848013205       21.9993437088
  P        39.6773063561       19.1407732232       30.8987762611
 Cl        36.6246050280       36.6975647990       39.7847860668
  P        36.8110341375       10.4316138426       30.9909784164
 In         9.0211687953       11.6020774201       23.4484334125
  P        30.9732618910       13.3661302202       33.8440872991
 In        41.2470786818       32.3785875473       35.3622845187
 Cl        33.6758028154       45.3816841617       27.7493911570
 In        26.5770880407       44.0613800303       38.4226936765
 Cl        36.7010286672       10.4364054087       36.6892557870
 In         9.2835376036       14.5809687793       20.5456567515
 In         8.8688602431       14.6615813643       26.5031846090
 In        26.5092431816       23.5228812023       11.9349541705
 In        29.4753401875       11.7631814467       20.6310547741
 Cl        45.2825783253       28.1099667419       22.1450188629
 Cl        33.1620164595       46.1607842146       33.2285387085
 In         9.0417828679       17.7365665220       17.8069943376
 In         9.1885581205       17.7250645904       23.5977420867
 In         8.7867234719       17.7249472154       29.3885820558
 In        26.5119084588       23.5193892887       17.7210356422
 In        32.3849092586       38.2459762661       26.5099812280
 In        38.2501071553       23.5292375032       29.4726988863
 In        41.1539688430       26.4297299743       17.6383230252
 In         9.2847340432       20.4525742079       14.5851535611
 In         9.1910735620       20.6220122634       20.6284002148
 Zn         9.1092614905       20.6988383859       26.5044760143
 In         8.8578787568       20.6253088344       32.3794509884
 In        26.5031023973       23.5261370262       23.5889543874
 In        32.4605367613       38.3233142064       32.4587437435
 In        29.4863382443       11.8630076374       26.5720638730
 In         9.0242748823       23.3691150872       11.6758703448
 In         9.1848923584       23.5122168023       17.6522347445
 In         9.1934840290       23.5333620755       23.6908669857
 In         9.1878912951       23.6818428343       29.3896023406
 In         8.7897817866       23.6092199434       35.2750380822
 In        26.5001467030       23.5249294561       29.4718712798
 In        32.4668350655       38.3260426186       38.3416765831
 In        29.5516539879       11.9260298890       32.3659344393
 Cl        27.2953255809       13.8780805304        6.9423321101
 In         8.9439523745       26.5043301322       14.6585098401
 In         9.1202828963       26.4254866510       20.7013875053
 Zn         9.1236326389       26.4929766961       26.5081690230
 Zn         9.1079881520       26.5620976186       32.3710318323
 In         8.8686827496       26.4970321487       38.3380798348
 In        26.4978348702       23.5192509820       35.3402651010
  P        28.0860194836       10.4397734977       33.8346287111
 In        38.2590771239       23.5959465864       35.3468378535
  P        27.9738041022       13.2135774125       13.2527239175
 In         8.9431278522       29.4807757910       17.6387916492
 In         9.1154959534       29.3874938837       23.6794585011
 In         9.1935110731       29.3185913780       29.4705805502
 In         9.1865758718       29.4720283695       35.2843466946
 In         9.0225065550       29.5544475917       41.3984421651
  P        33.8950710031       19.1672550017       30.8941099097
 Cl        27.7296371875       33.6208828052       45.2465174220