    1116
 i =       61, E =    -43222.5078705935
 Ga         9.0667652866       11.4932327450       19.6119197926
 Ga         9.2295523536       14.2260286964       16.8874487133
 Ga         8.9944810190       14.2990513703       22.4288876316
 Ga         9.2296237844       16.8852756060       14.2811858760
 Ga         9.2207638659       17.0363527922       19.6933022650
 Ga         9.0536760654       17.0327856099       25.2334851094
 Ga         9.0665606768       19.6094668885       11.4973989731
 Ga         9.2204552889       19.6946462274       17.0423094914
 Ga         9.2195063556       19.7738955154       22.4939200304
 Ga         9.0517598834       19.8260017348       27.9661864268
 Ga         8.9939019755       22.4240220873       14.2968715640
 Ga         9.2187579185       22.4319069109       19.8365590448
 Ga         9.2193405900       22.5656534929       25.2235241343
 Ga         9.0508755144       22.5730635729       30.7048704839
 Ga         9.0482894509       25.1688623336       17.0396456494
 Ga         9.2181828867       25.2236674718       22.5650487212
 Ga         9.2208286121       25.3110017858       27.9673290063
 Ga         9.0703346950       25.3934792172       33.5082478388
 Ga         9.0535179194       27.9654863193       19.7697486096
 Ga         9.2204116354       27.9664763422       25.3114830645
 Ga         9.2328953764       28.1165662080       30.7755463589
 Ga         8.9941900090       30.7008888667       22.5717596398
 Ga         9.2288457437       30.7727731758       28.1164844634
 Ga         9.0659253945       33.5054390477       25.3870979125
 Ga        11.4926036975        9.0717999566       19.6068016632
 Ga        11.5800448611       11.6360000790       16.9601901140
 Ga        11.6394692871       11.6479095310       22.4232457995
 Ga        11.4885162158       14.4553125773       14.4558012503
 Ga        11.7103746452       14.3074764276       19.7668068703
 Ga        11.6456980445       14.3725306183       25.1651809107
 Ga        11.5754114872       16.9597807379       11.6392630916
 Ga        11.7887273235       17.0355901007       17.0397863629
 Ga        11.7226658849       17.0391869796       22.5029083567
 Ga        11.6514695606       17.1016704792       27.9019908261
 Ga        11.4920744310       19.6064373606        9.0722481644
 Ga        11.7131867282       19.7675625718       14.3110988509
 Ga        11.8016567964       19.7704705237       19.7759976937
 Ga        11.7318387436       19.7707481010       25.2318971456
 Ga        11.6493161786       19.8332508871       30.6774529055
 Ga        11.6396942431       22.4233480376       11.6490078814
 Ga        11.7245741604       22.4981337834       17.0434567268
 Ga        11.8109891851       22.4999526669       22.5026313186
 Ga        11.7298251486       22.4988385696       27.9607569781
 Ga        11.6432556644       22.5807756435       33.3585899971
 Ga        11.6449464053       25.1615170116       14.3693361721
 Ga        11.7302155794       25.2283968931       19.7720681802
 Ga        11.8058642563       25.2274213255       25.2295766894
 Ga        11.7126584651       25.2361655162       30.6917106855
 Ga        11.4949456256       25.4446576529       35.9307147725
 Ga        11.6472685226       27.8961815384       17.1015695596
 Ga        11.7246513491       27.9622234335       22.4978415990
 Ga        11.7860185013       27.9639485120       27.9639778474
 Ga        11.6320361705       28.0413097014       33.3590262293
 Ga        11.6444428855       30.6301166154       19.8388826231
 Ga        11.7120643594       30.6887332395       25.2327682015
 Ga        11.4874806708       30.5445060810       30.5437600607
 Ga        11.6397048542       33.3509932781       22.5763723540
 Ga        11.5754523419       33.3640553220       28.0378549295
 Ga        11.4923632727       35.9285003095       25.3929408499
 Ga        14.2207881571        9.2956992366       16.8839884291
 Ga        14.2954694087        9.0581755180       22.4307961739
 Ga        14.4479236629       11.5005081476       14.4565969124
 Ga        14.3055306999       11.7208950575       19.7655489603
 Ga        14.3077584322       11.7099165841       25.1655642793
 Ga        14.4473619907       14.4572033362       11.5024681514
 Ga        14.3706567210       14.3735614447       17.1000907938
 Ga        14.3690689645       14.3739864197       22.5025295471
 Ga        14.3598279281       14.3743427699       27.8999609081
 Ga        14.2195320785       16.8837154460        9.2964109472
 Ga        14.3708451473       17.1015435124       14.3761003346
 Ga        14.3815282191       17.0466046783       19.7831724720
 Ga        14.3709856986       17.0473982942       25.2351476276
 Ga        14.3054559900       17.1021471350       30.6272691678
 Ga        14.3046724231       19.7648175624       11.7208046392
 Ga        14.3834834464       19.7796437167       17.0998219089
 Ga        14.4323657422       19.7718610368       22.5091564215
 Ga        14.3706444893       19.7654043187       27.9567652456
 Ga        14.3127740095       19.8350370315       33.3469623055
 Ga        14.2971676173       22.4286687488        9.0586575779
 Ga        14.3648135254       22.5023991075       14.3770793020
 Ga        14.4373489284       22.5065278326       19.7729933227
 Ga        14.4351728711       22.4914961050       25.2289203904
 Ga        14.3698070472       22.4962245788       30.6290873006
 Ga        14.2953938641       22.5715365291       35.9444577386
 Ga        14.3091696158       25.1635076065       11.6591260487
 Ga        14.3715882292       25.2335085102       17.0499999647
 Ga        14.4378757550       25.2275745451       22.4935983305
 Ga        14.3819996806       25.2191261558       27.9539724049
 Ga        14.3083371915       25.2318993032       33.2811116320
 Ga        14.3054702204       27.8984832001       14.3736871034
 Ga        14.3722246208       27.9512180499       19.7671190322
 Ga        14.3839230790       27.9020431369       25.2194308599
 Ga        14.3702622810       27.9003296677       30.6239142529
 Ga        14.2259428220       28.1182330448       35.7059285109
 Ga        14.3051430843       30.6261491764       17.1017319145
 Ga        14.3674310376       30.6256147517       22.4980476566
 Ga        14.3696648585       30.6243287445       27.8963026556
 Ga        14.4493636899       30.5460612604       33.5054599492
 Ga        14.3079521463       33.3396418173       19.8355644762
 Ga        14.3055935678       33.2789447268       25.2348050346
 Ga        14.3944356628       33.5051755456       30.5473964396
 Ga        14.2951719498       35.9440280257       22.5717080354
 Ga        14.2202384977       35.7050341072       28.1155352134
 Ga        16.8794255048        9.2935146151       14.2278074857
 Ga        17.0352649708        9.2256109755       19.6898597051
 Ga        17.0346577954        9.0634141102       25.1700865813
 Ga        16.9580514061       11.6431734147       11.6430848958
 Ga        17.0366203549       11.8001797377       17.0439607664
 Ga        17.0334013413       11.7392411668       22.4985263415
 Ga        17.0382443535       11.6563281208       27.8958132641
 Ga        16.8788278384       14.2277787786        9.2933892010
 Ga        17.1011798246       14.3769884797       14.3771132488
 Ga        17.0399869145       14.4416196677       19.7876011121
 Ga        17.0400040452       14.3803879478       25.2332484692
 Ga        17.0339676950       14.3731158242       30.6267048200
 Ga        17.0363836137       17.0439915472       11.8004589497
 Ga        17.1002784234       17.1086026591       17.1090091146
 Ga        17.0446286486       17.1004942384       22.5103090348
 Ga        17.0389851661       17.0452893198       27.9574033757
 Ga        17.0348223451       17.1014298359       33.2855718803
 Ga        17.0350945853       19.6914212074        9.2281032367
 Ga        17.0381040249       19.7800210881       14.4485823533
 Ga        17.1002289360       19.7762430567       19.8274913375
 Ga        17.0931996170       19.7683629015       25.2326329321
 Ga        17.0355508740       19.7661312651       30.6208802295
 Ga        17.0332794069       19.7710462450       35.9356878532
 Ga        17.0327614708       22.4986163406       11.7865023993
 Ga        17.0428139342       22.5046362729       17.1052006394
 Ga        17.1027382729       22.4994679602       22.5008861194
 Ga        17.0450659131       22.4908684193       27.9003276858
 Ga        17.0331973296       22.4988019414       33.2654739423
 Ga        17.0362985073       25.1700195625        9.0666977319
 Ga        17.0344736507       25.2348267551       14.3831806072
 Ga        17.0941216360       25.2313355180       19.7690414388
 Ga        17.0995405690       25.1728594490       25.2229373027
 Ga        17.0426261878       25.2178249512       30.5607231906
 Ga        17.0355266994       25.3103917866       35.7749093336
 Ga        17.0346090507       27.8941733592       11.7119249517
 Ga        17.0353904934       27.9586136511       17.0424582640
 Ga        17.0459692701       27.8962897778       22.4977778484
 Ga        17.0980396754       27.8931078688       27.8930155827
 Ga        17.0410469140       27.9584633057       33.2009577902
 Ga        17.0289326541       30.6240501764       14.3763208708
 Ga        17.0355807713       30.6195769659       19.7672169498
 Ga        17.0383725521       30.5541874458       25.2158105412
 Ga        17.0469741692       30.6280533615       30.6224456802
 Ga        16.8806814593       30.7720484335       35.7059872119
 Ga        17.0345274388       33.2884485895       17.1056814797
 Ga        17.0332318634       33.2529778697       22.5021252965
 Ga        17.0373975917       33.2009106669       27.9610366315
 Ga        16.9527722723       33.3601515168       33.3573335063
 Ga        17.0370875050       35.9362066326       19.8252640886
 Ga        17.0348059480       35.7742615121       25.3104855287
 Ga        16.8768249870       35.7035841763       30.7716662763
 Ga        19.5452294296        9.0711568259       11.5004862417
 Ga        19.6919921255        9.2255541978       17.0393073958
 Ga        19.7788009157        9.2893670766       22.4337033336
 Ga        19.7606940112        9.0652322083       27.9622226461
 Ga        19.5448973032       11.5006587266        9.0706560838
 Ga        19.7637064228       11.7247773652       14.3605442780
 Ga        19.7645128588       11.8696159619       19.7661935256
 Ga        19.7607816979       11.7883740643       25.2345487777
 Ga        19.7689141581       11.7149600804       30.6333858812
 Ga        19.7636210578       14.3608769889       11.7247278138
 Ga        19.7757342675       14.4492003196       17.0997214553
 Ga        19.7625088613       14.4532337241       22.5078054167
 Ga        19.7569866355       14.3769988955       27.9567256736
 Ga        19.7715494935       14.3692206535       33.3421837697
 Ga        19.6912682183       17.0389187606        9.2254601464
 Ga        19.7755574713       17.0994348896       14.4498808327
 Ga        19.7720424760       17.1088910074       19.8291353344
 Ga        19.7591126879       17.0974796304       25.2283983126
 Ga        19.7584090357       17.0411239999       30.6231592475
 Ga        19.7633182457       17.0352607585       35.9351229384
 Ga        19.7632284024       19.7664691663       11.8695384811
 Ga        19.7734155083       19.8305415524       17.1145746763
 Ga        19.7729378600       19.7806022446       22.5089662678
 Ga        19.7595879258       19.7718502560       27.9025137113
 Ga        19.7607702201       19.7659936310       33.2120461598
 Ga        19.7743351205       22.4313232556        9.2917517970
 Ga        19.7634860462       22.5067060039       14.4566950465
 Ga        19.7698450709       22.4992357587       19.7773891687
 Ga        19.7752425110       22.4943187020       25.2227358172
 Ga        19.7615028916       22.4919753143       30.5474365315
 Ga        19.7762509071       22.5642753726       35.7118796161
 Ga        19.7606303018       25.2353078931       11.7869388428
 Ga        19.7583495754       25.2281248049       17.0993885548
 Ga        19.7699232769       25.2250328135       22.5031865712
 Ga        19.7740789571       25.1720337684       27.8956939942
 Ga        19.7633620472       25.2364179753       33.1285307019
 Ga        19.7565481815       27.9606617814        9.0683133158
 Ga        19.7592955126       27.9554969540       14.3819743084
 Ga        19.7582139596       27.9015990905       19.7724898539
 Ga        19.7706405291       27.8897846782       25.2177122076
 Ga        19.7738457694       27.9535023198       30.5533055558
 Ga        19.6910890403       27.9639485351       35.7721658183
 Ga        19.7692635478       30.6304699386       11.7137859334
 Ga        19.7597070378       30.6197417870       17.0457589990
 Ga        19.7609897140       30.5449627490       22.4954127043
 Ga        19.7735877513       30.5580898578       27.9085490731
 Ga        19.7639054288       30.6922675067       33.2788932254
 Ga        19.7688700490       33.2872010673       14.3698090739
 Ga        19.7626482265       33.2157571157       19.7659803391
 Ga        19.7632922679       33.1307824294       25.2344012811
 Ga        19.7643249512       33.2779461557       30.6888495818
 Ga        19.5464877788       33.5047704295       35.9294923450
 Ga        19.7556384766       35.9321387967       17.0376746406
 Ga        19.7782803065       35.7102014746       22.5656035206
 Ga        19.6907141500       35.7721959226       27.9637728130
 Ga        19.5473119977       35.9300405732       33.5035221370
 Ga        22.4242488364        9.0591679942       14.2956267241
 Ga        22.4311425202        9.2920122639       19.7785208626
 Ga        22.5060095321        9.2898022062       25.2240711215
 Ga        22.5034024554        9.0629512779       30.7048909306
 Ga        22.3566270318       11.6457701933       11.6463433171
 Ga        22.4995521410       11.7853639629       17.0364926066
 Ga        22.4963009358       11.8735226150       22.5004931684
 Ga        22.4952106320       11.7297378363       27.9637290600
 Ga        22.5682040776       11.6533471560       33.3495873601
 Ga        22.4232405349       14.2942653006        9.0595537605
 Ga        22.5014564002       14.3750167069       14.3755502888
 Ga        22.5057469425       14.4548086933       19.7695838818
 Ga        22.4860973956       14.4492152443       25.2323571403
 Ga        22.4796352025       14.3683838817       30.6330894866
 Ga        22.5617185284       14.2976638025       35.9422705794
 Ga        22.4988464003       17.0357362851       11.7857563371
 Ga        22.5029027378       17.1041492304       17.1054626694
 Ga        22.4989317446       17.1045371248       22.5021960510
 Ga        22.4302263173       17.1002804423       27.8988529472
 Ga        22.4921587681       17.0381679681       33.2710581577
 Ga        22.4285782135       19.7759365553        9.2920618083
 Ga        22.5046337317       19.7692386969       14.4567190671
 Ga        22.4985456349       19.7781362986       19.8262498739
 Ga        22.4877145465       19.7845885868       25.1977221431
 Ga        22.4847759936       19.7680930957       30.5500556981
 Ga        22.5043961580       19.7767707680       35.7103550148
 Ga        22.4950778980       22.4993122564       11.8745778999
 Ga        22.4973436677       22.4989518117       17.1123200175
 Ga        22.4891824848       22.4965379179       22.5090427377
 Ga        22.4961074546       22.4998344806       27.8941645217
 Ga        22.4957277763       22.5000112176       33.1259002086
 Ga        22.5011366502       25.2176891116        9.2886820861
 Ga        22.4846171797       25.2317537714       14.4524270814
 Ga        22.4414771022       25.1693671059       19.8269256185
 Ga        22.4954871929       25.2233712127       25.2234342189
 Ga        22.5026151755       25.2332893103       30.5439818322
 Ga        22.4293342563       25.2227809517       35.7078333847
 Ga        22.4913854765       27.9642082353       11.7346862603
 Ga        22.4309029635       27.8953205162       17.1073135838
 Ga        22.4917778021       27.8937027669       22.5051714305
 Ga        22.5032945850       27.8970633310       27.9022706782
 Ga        22.4976020439       27.9656093969       33.2140045698
 Ga        22.4994337736       30.7064367362        9.0625269637
 Ga        22.4876181392       30.6301884130       14.3744795848
 Ga        22.4818949485       30.5501367898       19.7705930306
 Ga        22.5044168383       30.5459817659       25.2302244355
 Ga        22.5017133859       30.6269215180       30.6241218658
 Ga        22.4241104457       30.7045889795       35.9407240611
 Ga        22.5652255757       33.3498120122       11.6499386200
 Ga        22.4949716547       33.2718438799       17.0379619581
 Ga        22.4972999188       33.1325219490       22.4988421273
 Ga        22.4968568934       33.2140728080       27.9659578253
 Ga        22.4154336334       33.3580928301       33.3577488881
 Ga        22.5022027454       35.9371003528       14.2951953432
 Ga        22.5041356410       35.7668736242       19.7773099708
 Ga        22.4296547670       35.7078023960       25.2223239007
 Ga        22.4240876204       35.9407522625       30.7044239106
 Ga        25.1686289710        9.0624622119       17.0415565922
 Ga        25.1612729282        9.2883371118       22.5690879421
 Ga        25.3016926574        9.2242166229       27.9637648680
 Ga        25.3874756862        9.0728904312       33.5020221043
 Ga        25.1609260312       11.6503598753       14.3169725602
 Ga        25.2327826191       11.7860368511       19.7683430674
 Ga        25.2293769283       11.8654485630       25.2352473393
 Ga        25.2278009481       11.7190095554       30.6945881657
 Ga        25.3882951301       11.4972772001       35.9239331450
 Ga        25.1600068472       14.3090759059       11.6539088982
 Ga        25.2344955310       14.3792681155       17.0392242217
 Ga        25.2312256612       14.4516155317       22.4931508721
 Ga        25.1639843621       14.4397295476       27.9577135319
 Ga        25.2328182033       14.3572699693       33.2830506812
 Ga        25.1621453599       17.0340644265        9.0652012959
 Ga        25.2315351697       17.0340478404       14.3817843582
 Ga        25.2319378420       17.0962043031       19.7665911818
 Ga        25.1665862910       17.1067520806       25.2242843269
 Ga        25.1653162127       17.0466939543       30.5580523920
 Ga        25.3002609388       17.0401997422       35.7763594786
 Ga        25.2265368124       19.7639595810       11.7855769955
 Ga        25.2294385252       19.7692272729       17.1054275156
 Ga        25.2243941456       19.7789140759       22.5034367704
 Ga        25.1660259804       19.7762666657       27.8923106887
 Ga        25.2253709016       19.7638762228       33.1316655985
 Ga        25.1575158846       22.5609857785        9.2907679450
 Ga        25.2246218287       22.4953908253       14.4579672865
 Ga        25.1699418186       22.4987526845       19.8291010070
 Ga        25.1731159961       22.5009154670       25.2200326992
 Ga        25.2301047545       22.5075079949       30.5476950325
 Ga        25.1542419523       22.4329254862       35.7109806675
 Ga        25.2245322597       25.2328565598       11.8690549955
 Ga        25.1645256738       25.2247542163       17.1201495882
 Ga        25.1676878967       25.2163341214       22.5092641542
 Ga        25.2323889270       25.2323398296       27.9032805652
 Ga        25.2312382482       25.2347890017       33.2115574583
 Ga        25.2421611505       27.9642482452        9.2226220463
 Ga        25.1615593239       27.9604001466       14.4486289034
 Ga        25.1657248011       27.8874186066       19.8299089082
 Ga        25.2298005558       27.9046244377       25.2358692858
 Ga        25.2342072030       27.9609439816       30.6202996760
 Ga        25.1649260267       27.9612248393       35.9368559817
 Ga        25.2245290575       30.6926215952       11.7168651128
 Ga        25.1605919146       30.5547878860       17.0942717061
 Ga        25.2292917297       30.5500487399       22.5097984241
 Ga        25.2338256486       30.6210715399       27.9605516882
 Ga        25.1641636848       30.6842752901       33.3464520891
 Ga        25.3861527574       33.5020563262        9.0723312564
 Ga        25.2231296947       33.2804064519       14.3094624852
 Ga        25.2168974032       33.1447558550       19.7707656913
 Ga        25.2304229442       33.2159616562       25.2324008250
 Ga        25.1642022211       33.3472875016       30.6844601490
 Ga        25.3869802115       35.9247728833       11.4986534762
 Ga        25.2892468134       35.7775096268       17.0360509185
 Ga        25.1537766229       35.7692134358       22.4336363704
 Ga        25.1644768397       35.9375712972       27.9616164811
 Ga        27.9517539774        9.0583981347       19.8296363543
 Ga        27.9539092616        9.2230347765       25.3072203767
 Ga        28.1127883929        9.2933874058       30.7749681119
 Ga        27.8954099066       11.6465721215       17.1044952125
 Ga        27.9581219935       11.7334597658       22.5018238601
 Ga        27.9467466332       11.8016792185       27.9615587836
 Ga        28.0334200724       11.6409670463       33.3665586854
 Ga        27.8991656704       14.3058952930       14.3735642648
 Ga        27.9599754697       14.3763262930       19.7669345283
 Ga        27.8946988851       14.4407859882       25.2215794028
 Ga        27.8952103940       14.3758413162       30.6249341655
 Ga        28.1112996797       14.2234783972       35.7647370412
 Ga        27.8951918275       17.0355341160       11.7125181968
 Ga        27.9599514072       17.0354816167       17.0421462727
 Ga        27.8968275954       17.0994487699       22.4958587170
 Ga        27.8869452056       17.1023489289       27.8981738797
 Ga        27.9515763099       17.0399749241       33.2014010629
 Ga        27.8883780633       19.7654591985        9.0651096448
 Ga        27.9064557679       19.7589800048       14.3804629608
 Ga        27.8988377640       19.7687940299       19.7662875332
 Ga        27.8873615611       19.7795919447       25.2231483112
 Ga        27.8934185491       19.7779377832       30.5589866246
 Ga        27.8983977409       19.6941941973       35.7777991146
 Ga        27.9502730070       22.4965994733       11.7833282823
 Ga        27.8859800884       22.4972439117       17.1135956143
 Ga        27.8854595753       22.4988496559       22.5048337612
 Ga        27.8935721651       22.5049362164       27.8990494139
 Ga        27.9545175195       22.4984639158       33.2644750576
 Ga        27.8947091665       25.3010170479        9.2257434317
 Ga        27.8913768871       25.2272248117       14.4509058696
 Ga        27.8796099423       25.2239164532       19.8332000800
 Ga        27.8964145379       25.2288997385       25.2345416266
 Ga        27.9570533488       25.2361829576       30.6239056793
 Ga        27.8925040022       25.1711208939       35.9421379883
 Ga        27.8964844264       27.9616715928       11.8024453101
 Ga        27.8842736685       27.8962197442       17.1102669836
 Ga        27.8923820352       27.9005641059       22.5615744304
 Ga        27.9528906748       27.9555668094       27.9560392170
 Ga        27.8975326785       27.9534663576       33.3446361917
 Ga        28.0963327330       30.7724003413        9.2922177493
 Ga        27.8925666846       30.6226220555       14.3797522595
 Ga        27.8951688394       30.5553289288       19.7865738232
 Ga        27.9555130046       30.6269000936       25.2392926193
 Ga        27.8994678136       30.6314168678       30.6313878854
 Ga        28.0347161602       33.3629052265       11.6359639904
 Ga        27.9001322382       33.1960397775       17.0382969686
 Ga        27.9498505135       33.2698455407       22.4983156660
 Ga        27.8974644793       33.3456279505       27.9546294584
 Ga        28.1095439324       35.7067036618       14.2234602013
 Ga        27.8978216037       35.7778674432       19.6932348632
 Ga        27.8944686423       35.9428627334       25.1739399463
 Ga        30.7060995473        9.0552822731       22.5762826508
 Ga        30.7693875071        9.2934389860       28.1193525919
 Ga        30.6839786879       11.6498237410       19.8374064018
 Ga        30.6336690411       11.7223185763       25.2345382720
 Ga        30.5424487359       11.4980056787       30.5475434674
 Ga        30.6265068492       14.3056237706       17.1010923668
 Ga        30.6216086018       14.3700666463       22.4974764232
 Ga        30.6197079652       14.3737202224       27.8983744847
 Ga        30.5403096923       14.4567360928       33.5118243429
 Ga        30.6269849093       17.0349559416       14.3731688358
 Ga        30.6171811453       17.0355087819       19.7658341934
 Ga        30.5546526966       17.0461502633       25.2232826686
 Ga        30.6213321071       17.1035352512       30.6300335486
 Ga        30.7087542578       16.8864080433       35.7663635324
 Ga        30.6136039187       19.7697853784       11.6569548023
 Ga        30.6176103003       19.7581734236       17.0418737885
 Ga        30.5429892164       19.7676022383       22.4960600114
 Ga        30.5544965063       19.7773325303       27.9552710909
 Ga        30.6287616862       19.7648678251       33.2789561217
 Ga        30.6280122380       22.5004963107        9.0635959428
 Ga        30.5496359849       22.5012655118       14.4430563598
 Ga        30.5414783889       22.4927593328       19.7730010183
 Ga        30.5432207101       22.5044934135       25.2331600989
 Ga        30.6171963427       22.5002155696       30.6289641426
 Ga        30.6933670932       22.4324778099       35.9462503944
 Ga        30.6205886663       25.2377194101       11.7256398015
 Ga        30.5455657835       25.2287762941       17.1091086329
 Ga        30.5446826961       25.2292203084       22.5124106344
 Ga        30.6109896523       25.2317177266       27.9587313850
 Ga        30.6216752863       25.1720009069       33.3505896733
 Ga        30.7081903735       28.1110930971        9.2963843494
 Ga        30.6080702832       27.8982820159       14.3741168368
 Ga        30.5497969146       27.9582223710       19.8321240778
 Ga        30.6135082360       27.9561777061       25.2359852957
 Ga        30.6240708167       27.9025807425       30.6340452855
 Ga        30.5381692556       30.5440725666       11.4981518559
 Ga        30.6133184390       30.6269482605       17.1047652593
 Ga        30.6165414145       30.6329503830       22.5038930996
 Ga        30.6242258632       30.6336923986       27.9035742712
 Ga        30.5376635899       33.5031232664       14.4569233064
 Ga        30.6263457463       33.2788173621       19.7660182094
 Ga        30.6213392387       33.3511452007       25.1736926270
 Ga        30.7053970299       35.7022873182       16.8835271405
 Ga        30.6960422882       35.9449958693       22.4281033540
 Ga        33.4980314637        9.0709380128       25.4543918051
 Ga        33.3531479412       11.6420539687       22.6387222508
 Ga        33.3575981207       11.6411547076       28.0439414643
 Ga        33.3458344891       14.3090344538       19.8390760656
 Ga        33.2778408552       14.3087452249       25.2369565621
 Ga        33.4446628412       14.4574695447       30.5511124319
 Ga        33.2875303418       17.0376311217       17.1026153735
 Ga        33.2133696017       17.0337213236       22.5023939742
 Ga        33.2004494839       17.0425587733       27.9597147885
 Ga        33.3571527493       16.9626965564       33.4227209452
 Ga        33.3479595763       19.8255565720       14.3842493454
 Ga        33.2113624791       19.7642926278       19.7703154211
 Ga        33.1287795896       19.7637603707       25.2364515898
 Ga        33.2751411015       19.7636798487       30.6969730629
 Ga        33.4396121064       19.6092523720       35.9312931534
 Ga        33.0412476385       22.8129738898       11.9555108806
 Ga        33.2123346225       22.4944058717       17.0538511922
 Ga        33.1252349921       22.4994198946       22.5033061152
 Ga        33.2137037158       22.4985911517       27.9664678906
 Ga        33.3480404199       22.4219161525       33.3556645953
 Ga        33.5008728100       25.4524608331        9.0722994773
 Ga        33.2129391590       25.2393567830       14.3725631552
 Ga        33.1249711542       25.2349460722       19.7757835197
 Ga        33.2117357121       25.2322177584       25.2357909575
 Ga        33.2887299161       25.1667970692       30.6830780620
 Ga        33.3514857296       28.0442641106       11.6411459414
 Ga        33.1878551973       27.9611364779       17.0442672626
 Ga        33.2177689281       27.9654646756       22.5078606700
 Ga        33.2887845582       27.8979274902       27.9024622465
 Ga        33.4431071260       30.5459224957       14.4546552287
 Ga        33.2701792648       30.6947589186       19.7654138706
 Ga        33.2898153030       30.6726533310       25.1674586180
 Ga        33.3533510483       33.3626873020       16.9590714351
 Ga        33.3401675989       33.3570446238       22.4214826663
 Ga        33.4343368494       35.9302765651       19.5463205165
 Ga        35.9326029414       11.4942169913       25.4572127063
 Ga        35.9414073921       14.2948947068       22.5761554230
 Ga        35.7028551176       14.2282723102       28.1230933444
 Ga        35.9347923390       17.0344986467       19.8371327698
 Ga        35.7714332679       17.0354598530       25.3092756794
 Ga        35.6997901034       16.8801795903       30.7805515055
 Ga        35.9339406301       19.7685009538       17.1088934052