     691
 i =      122, E =    -16904.4156040030
 Hg        19.8816037659       26.4846399181       19.7741944538
 Hg        23.2066880842       29.7788144594       19.8476630479
 Hg        26.5850410035       32.7351463835       19.7765461753
 Hg        29.6776258695       35.9464580676       19.5669893193
 Hg        36.8169543939       22.5511076693       30.7553149997
 Hg         7.7949514833       12.7090030629       20.5309076995
 Hg         9.7686166231       16.8047114037       19.4380148814
 Hg        13.3249948900       19.8867996687       19.7671869896
 Hg        16.5445306879       23.1880375937       19.7116529383
 Hg        23.2678196630       26.4928368041       23.2153209943
 Hg        26.6136569171       29.8672330854       23.3271027077
 Hg        29.9092928466       33.1232575087       23.1927808690
 Hg        32.2863195799       35.8240650685       21.8511154055
 Hg        23.7070112107       29.1560116903        6.7287918306
 Hg        16.4879682481       13.0831766343       16.6276277607
 Hg        10.0386122279       13.0510833677       23.3310745194
 Hg        13.1648158820       16.4924581227       22.9399705577
 Hg        16.5598781592       19.7788978096       23.1491672422
 Hg        19.8626753949       23.0774412882       23.1374275740
 Hg        26.6477157803       26.5073438771       26.4927243739
 Hg        29.9876501010       29.9227403847       26.7631041647
 Hg        19.8712818075       16.4057121633       16.3845516773
 Hg        13.4520165928       19.6539807319       13.0757163155
 Hg        13.2820818177       12.9886938616       26.5578676966
 Hg        16.4970579668       16.4487101322       26.4374917901
 Hg        19.8237470535       19.7642421104       26.4783971224
 Hg        23.2721679658       23.1207561733       26.4537234030
 Hg        29.9225562338       26.6207629802       29.8411879731
 Hg        32.1289074248       30.0802818877       30.3693171798
 Hg        12.7582087656       35.2543143235       22.3872673000
 Hg        36.2014091609       25.9472052986       28.8305784446
 Hg        23.1717940992       13.2076801791       23.1457560901
 Hg        13.4670051326       10.2076563162       29.3169074030
 Hg        16.3737208591       12.9159248084       30.0213978574
 Hg        19.8483023068       16.3618038711       29.7805733433
 Hg        23.2142223398       19.8036675470       29.7118415378
 Hg        26.5447981113       23.1439905943       29.8186283797
 Hg        29.9870435251       13.0624899034       16.1413243560
 Hg        26.5340463398       16.5224269447       23.0478771859
 Hg        33.1173937335       19.6863026446       26.3934027015
 Hg        26.5655476187       19.7823046916       19.7232310045
 Hg        22.9011427014        6.8752828078       16.6929216536
 Hg        26.6892579691        9.7637312457       16.4147354299
 Hg        19.9468331802       13.0250005023       33.1893460905
 Hg        23.3324509896       16.3768825202       32.7242889549
 Hg        26.5915956588       19.6773553803       32.9547798128
 Hg        30.1279092541       23.2623787357       32.7903242304
 Hg        23.1923124529       23.3014943087        6.7554352681
 Hg        36.2032922333       29.3393804808       25.6162596662
 Hg        23.5881092643       13.4373419912       36.2012006046
 Hg        26.9045607504       16.5497876418       36.0320693431
 Hg        29.0971274463       19.1561461770       36.1228867251
 Hg        30.8142411295       22.7617468512       36.6570317884
 Hg        23.4140683065       10.0435666780       12.9342766758
 Hg        23.2108948840       19.8159593139        9.8744870348
 Hg        13.3382925902        9.7491810064       23.1989047332
 Hg        29.5473813414       23.5160845768        7.0424598484
 Hg        32.6626828256       29.6659216731       16.3549088301
 Hg        16.4810596042       19.7345875022       10.1796607668
 Hg        26.6995767098       13.1451268089       13.0479525477
 Hg        19.8504855045       23.1474769740        9.8166067409
 Hg        13.3037376558       13.1876898840       13.4105587828
 Hg        23.2398074383       16.4596007013       19.7402784706
 Hg        26.8239792637       16.4069281122        9.7097592814
 Hg        26.4077186757       16.4100603083       29.7945283072
 Hg        33.3408828286       23.1602805372       16.5680930430
 Hg        16.5239588496        9.6494914397       26.6660560907
 Hg        33.1769600425       13.1496691157       19.6833025887
 Hg        36.2378814952       17.0014432392       20.0611997422
 Hg        19.9290926513       19.7878399086       19.7746778019
 Hg        16.5720920760        6.8787507676       16.2345068865
 Hg        13.5938865101        5.9010587886       24.1003028216
 Hg        16.4846689434       16.6217429259       13.0941930143
 Hg        19.1957910441       13.9451565230        6.8279151063
 Hg        10.1606427550       13.2508004426       16.6389216243
 Hg        16.6383066804       16.5113981550       19.8078916850
 Hg        29.5342901611       23.3716602286       13.1430448635
 Hg        29.5866815956       29.8693401162       19.7461642030
 Hg        33.3651065623       16.4492410063       16.2270341707
 Hg        29.8316120640       19.8244679726       23.0671719359
 Hg        20.1428554330       13.0172744526       13.0459767535
 Hg        29.8871216718       19.9373703705        9.8605999192
 Hg        16.8971303390       22.7391765818        6.6935604282
 Hg        13.0288745263       30.6380368327       10.3698689771
 Hg        20.2000668776       36.7978479437       12.3435247304
 Hg        13.2935155834       16.4870859425       16.5612978853
 Hg        22.7943720010       29.9874747220       13.0070244240
 Hg        26.5885063853       32.8978737104       13.2404706631
 Hg        23.1785767051       23.1902219313       19.7892790455
 Hg        13.0416069563       26.6716603119       12.8660084543
 Hg        16.2869708331       29.9358287538       13.1334350661
 Hg        19.5420124865       32.9208826918       12.9869654445
 Hg        23.9100296814       36.2319804580       14.0884940554
 Hg         8.3160308999       19.4082308819       12.9906460243
 Hg         9.6268473289       23.2253451859       12.8034511643
 Hg        16.5367989981       26.5608614588       16.4722165650
 Hg        19.8613925559       29.8732017427       16.5467556022
 Hg        23.3234219648       33.0636685991       16.4855510435
 Hg        26.5257971525       36.0970280827       16.2547601274
 Hg        35.9802659856       23.3173487926       19.7900213858
 Hg         9.8071177331       19.9262607876       16.4924027175
 Hg        13.0966215234       23.2437657270       16.2610035762
 Hg        19.9213515833       29.6866081136       23.1332579461
 Hg        23.2294806990       33.1146543319       23.2387624791
 Hg        26.0693958535       36.1559483931       22.8252888576
 Hg        36.1476311525       22.7884393571       26.1445103394
 Hg         6.6129744095       16.8429619703       22.6549096705
 Hg         9.9834327669       19.8223568148       23.0642753672
 Hg        13.2745044784       23.0902777150       23.0986878143
 Hg        16.5976924146       26.3634263014       23.1044322729
 Hg        23.2419392741       29.8689599404       26.5889582672
 Hg        26.6423755022       33.2632725737       26.7080668499
 Hg        29.6688270559       36.9756479828       24.0959898065
 Hg        29.9261532557       23.1662500915       26.4064468889
 Hg        10.3391945678       10.0717491610       19.5324469685
 Hg         6.7899474696       13.7844366123       24.9500203141
 Hg         9.8238280047       16.3804119396       26.2734062223
 Hg        13.1811628347       19.7405570171       26.4059945304
 Hg        16.4627446841       23.0959824386       26.5305251290
 Hg        19.9206092946       26.3664847716       26.4391183539
 Hg        26.5502282895       30.0311206725       29.9382780800
 Hg        29.5042082641       32.6690891341       29.5369193984
 Hg        26.5839523211       16.4180626717       16.4287971139
 Hg        19.8022374917        9.5642266507       30.0228499754
 Hg        10.7342479400       12.8779037285       29.6451411772
 Hg        13.0998846705       16.1138197573       29.8210709721
 Hg        16.4899479176       19.6587361337       29.8654669458
 Hg        19.8310224137       23.0357459305       29.7163874540
 Hg        23.2332549549       26.4491828856       29.7566845417
 Hg        29.7137859418       29.5090162259       32.7774436192
 Hg        26.6176314481       13.0875635325       19.8373692028
 Hg        32.5682790933       26.7888926436       13.3495921947
 Hg        12.4862826576       12.7508347671       32.6523199835
 Hg        16.6139921590       16.2637235980       33.2320023105
 Hg        19.9348736295       19.7814492177       33.0756201811
 Hg        23.2321639759       23.1329208114       33.0459120286
 Hg        26.6659846646       26.7379710362       33.1822854843
 Hg        33.2647658260       26.6324550247       26.4650993143
 Hg        23.3784343401        7.0196349706       23.0847941780
 Hg        26.2480237496        9.7018699652       23.2151752300
 Hg        17.6676962243       13.8684523583       36.2834551228
 Hg        20.3478665185       16.7776518595       36.2630530948
 Hg        23.4479781858       19.7816113657       36.1889192226
 Hg        26.4409581677       22.7842195140       35.9978624799
 Hg        29.6409406147       26.2399357476       35.4833222545
 Hg         7.1602939095       32.1077217721       21.0312871740
 Hg         7.1085656763       29.5570236667       23.3900538293
 Hg        10.1634738783       32.6704547589       23.3854240002
 Hg        30.0908000667       16.5089893678       12.9801145815
 Hg        33.4007344895       19.8429116032       12.8899060150
 Hg        26.5224613533       19.8205439764       13.1545421724
 Hg        26.7832630284       10.3612047832       29.6290032841
 Hg        25.9772586070       20.1469740342        6.6788289560
 Hg        16.6202487845       13.1276842869       23.2025199180
 Hg        34.8223622091       23.6309407828       13.0356209708
 Hg        26.3245701843       26.8646239221        6.8651657343
 Hg        32.9549812958       16.3460412671       29.6372692531
 Hg        36.5952017066       26.2370785477       22.8970077618
 Hg        32.6976212936       32.8174945303       19.4849087667
 Hg        22.8251869847       16.6070915594        6.8918608092
 Hg        26.3474197735        6.4151986424       19.9891065726
 Hg        30.1693819650        9.7742112921       19.2306930246
 Hg        35.9953296785       13.3288926787       23.2809078336
 Hg        30.0341629926       20.0643965517       29.8237952980
 Hg        29.8208994388       13.3453599743       29.6146611305
 Hg        29.9297271921       13.3961988591       23.1426152527
 Hg        36.1333381566       16.4600533891       26.5953778500
 Hg        26.5710569751       23.2490658844       10.1731360484
 Hg        29.7770807129       23.1326125211       19.7713237924
 Hg        32.5324547019       23.7093417125       10.0593302791
 Hg        16.6357160048        7.7620569036       30.0546064380
 Hg        33.3067091714       26.2153566801       19.6584658566
 Hg        37.1237899199       19.8371381314       16.6418857797
 Hg        10.3597299801       29.6119111532       13.5515033436
 Hg        13.0533592368       32.3973109873       13.3171880298
 Hg        16.8673291743       36.1063197006       14.3475612452
 Hg        33.2187882167       19.8461679820       19.6690688302
 Hg        23.2153483442       19.7707105824       16.4633733668
 Hg         7.9573213148       26.4821529927       12.7712036850
 Hg        13.0797870335       29.7908540785       16.3505656045
 Hg        16.4826614321       33.2330836378       16.6507533506
 Hg        20.3190516075       36.1125971655       16.7552346533
 Hg        29.6860271146       10.3257491608       26.5445346355
 Hg         6.0159552548       23.2048334062       16.6392992097
 Hg         9.7778377891       26.5483063488       16.1993258176
 Hg        16.5735030131       29.8654317713       19.9592866482
 Hg        19.9235917279       33.0674988351       19.8852010793
 Hg        23.2766955939       36.3083929128       19.6434308764
 Hg         7.1028688964       19.7612622558       19.7024229254
 Hg         9.9062884381       23.1396296464       19.6633196562
 Hg        13.2158332090       26.4305225795       19.7023214803
 Hg        20.0186477702       33.2400628891       26.3829885310
 Hg        23.3303529400       36.9853725396       26.2456394902
 Hg        33.1459622061       23.1250830524       23.0730089304
 Hg         6.9577444358       20.2071688556       26.2117817103
 Hg        10.0092619441       23.2138887425       26.4655311995
 Hg        13.1737206694       26.4872756345       26.3188230386
 Hg        16.5454457060       29.6968375700       26.3480345195
 Hg        23.2129233131       33.3395959082       30.0796712297
 Hg        26.3839756184       35.0153248586       30.2772020407
 Hg        23.2238341874       16.4979234190       13.0773921079
 Hg        19.8629125718       23.2250296599       16.4546137561
 Hg        23.2428093125       26.4938782427        9.9281522359
 Hg         6.9892286464       16.7491290698       28.6157726672
 Hg        10.1531819401       19.4405489602       29.9349997687
 Hg        13.0620776328       22.7299720824       29.9203251099
 Hg        16.6469256366       26.4584048790       29.8443877723
 Hg        19.6419555076       29.4837573325       29.7510101884
 Hg        22.8232451834       12.2110653516        6.2858046166
 Hg        26.3177471075       13.4469416983        7.3996237183
 Hg        12.9868849212       19.4420041182       32.8997611854
 Hg        16.5523910202       23.1905367107       32.9808348839
 Hg        19.8046520651       26.4992833097       32.7120768786
 Hg        23.1199663793       29.8111201535       33.0247994538
 Hg        29.7161338699       18.7634063255        6.1482247978
 Hg        32.2102677244       21.1831327442        7.1368727537
 Hg        23.3674403191       13.3452950443       29.8358254218
 Hg        14.1733877229       16.8665131419       36.0817216725
 Hg        16.8020104966       20.1764963704       36.0719796183
 Hg        19.7714470087       23.0961634005       36.1541322052
 Hg        22.9048929867       25.9515043068       36.2253127777
 Hg        24.3194801304       29.6836866417       36.7012488039
 Hg        13.4532247647        6.9962312819       19.5588930743
 Hg        19.8840421586       19.6437354389        6.7255312723
 Hg        19.7484074555       26.5578043205       13.0510875189
 Hg        23.2041473134       26.5978216442       16.3964773915
 Hg        19.1705294280        6.7749375640       14.0636051967
 Hg        26.4696487003       26.4898888415       19.8470679149
 Hg        16.5264697774       10.2119282057       19.7648624644
 Hg        29.9431183747       26.5363479008       23.0556975755
 Hg        10.4204741184       16.1834786605       13.4110142711
 Hg        19.8821563053        6.6133821757       19.5272868904
 Hg        29.6028010858       13.3606456474       10.1181874508
 Hg        26.5139167733       13.2024586105       26.3643698648
 Hg        26.4381939188       23.1421663948       16.4802379724
 Hg        29.9611799943       16.3670853525       26.2357538374
 Hg        19.9430618402        5.8820676361       26.2072625494
 Hg        19.7862040996        9.9042120549       16.4614483972
 Hg        19.8723510889       16.4540530638       23.1777005632
 Hg        20.2825580941       26.2723896242        6.7203232509
 Hg        36.2689051666       19.0657831656       28.7570162792
 Hg        26.5894184849       29.9200250111       16.6175053483
 Hg        23.6219402507       10.4401893422       33.0340989395
 Hg        22.6591829089        6.2491186556       12.0594421308
 Hg        30.1614366306       10.9432280451       12.5286185224
 Hg        32.7434785646       13.5867615261       13.3665467321
 Hg        35.1250957472       16.6990082416       12.6695298617
 Hg        36.4061638634       19.7593756547       23.3159138542
 Hg        29.8518701864       16.3986569999       32.7791505229
 Hg        13.8634408485       36.2459775582       17.9899759424
 Hg        29.7576341150       26.4803484446       16.5465648713
 Hg        29.9563805909       19.8340453144       16.3556498139
 Hg        23.3726133530       12.9134466496       10.1200650566
 Hg        33.2535051227       30.0964706257       23.6336199446
 Hg        23.2096332636        9.6414785220       26.3567731045
 Hg         6.0167620549       29.4795894134       18.7909709743
 Hg        13.1634619953       32.9929074804       19.6317604117
 Hg        16.9254217001       36.4169970394       20.2662977582
 Hg        23.2464954498       19.8298772511       23.1281706961
 Hg        23.2588093188       13.1226297222       16.4640069045
 Hg        29.7957485034        8.0751507618       23.2216455275
 Hg        32.8644769450       10.3113901673       23.3896783979
 Hg        16.3927936172       13.1981449870       10.1609797352
 Hg         6.8489142483       25.9011678108       20.0869660397
 Hg         9.8535763110       29.6991736194       19.7325283882
 Hg        16.8835402283       33.2504886022       23.4846620026
 Hg        19.8315201338       35.9594348148       23.2349819857
 Hg        13.1422614718       23.0890456951        9.7593282499
 Hg         6.7365420779       23.1659946713       23.3151825306
 Hg        10.2984184611       26.4821816398       23.1902550730
 Hg        13.1776111983       29.4255838896       23.1897446497
 Hg        19.4169096516       34.7477068427       29.8477494249
 Hg        26.0499474908        6.8656139848       14.0002010442
 Hg        37.0178890688       13.3732427136       18.7695372779
 Hg        16.3899799493       26.4265301071        9.7197391328
 Hg         6.8697847248       23.7982892044       28.9030531538
 Hg        10.1877096927       26.5481778626       29.6856392753
 Hg        13.2402622856       29.6777267539       29.5186231879
 Hg        16.2055571319       32.5569132073       29.4154223754
 Hg        32.9995307753       23.3397005674       29.9414343793
 Hg        23.6098612409        8.1964105245       29.9258395453
 Hg         6.3145387720       20.0676738447       30.6528179839
 Hg        13.3064847758       26.5878292129       32.7636140177
 Hg        19.3258804524       32.4995654871       32.7934791024
 Hg        17.1743074681        6.7369455465       22.7975339327
 Hg        11.2236886918       21.9065649500        6.7192721799
 Hg        12.2353599269       20.2460133944       36.6888805768
 Hg        14.1396486782       23.8151492434       36.0821616855
 Hg        16.3262090539       26.4145358019       36.0121107240
 Hg        19.6436645057       29.5847944900       35.8815155453
 Hg        13.8949759939       25.2907988391        6.5582840670
 Hg        19.8916252073       19.8342725612       13.1889869939
 Hg         6.9699454547       26.4071428939       26.7232635748
 Hg        13.5589923783       13.0830467023       19.7499292621
 Hg        29.4121735626        6.8413500070       17.2347202370
 Hg        35.8572312461       10.7351044014       20.9896790783
 Hg        19.5837045608       30.0501346417        9.9385965405
 Hg        13.3074055220       32.8517763703       26.2530484821
 Hg        19.9373035963        9.7924024655       23.2081402016
 Hg        13.5011759201       19.4924106565        6.7134490435
 Hg        26.5605573474       23.1689570615       23.1676131739
 Hg        34.9491872381       29.7379885801       19.6547064951
 Hg        23.1008279518       23.2002409001       13.2014705096
 Hg        29.5824567571       29.7853480476       13.2679460079
 Hg        16.3991875358       10.0966352804       13.2477775152
 Hg        19.7488659713       16.4619712997        9.9378250619
 Hg        10.5268896473       19.3646201315        9.9198128608
 Hg        16.4720111916       23.1739380207       13.1774352283
 Hg        16.6076299136       19.8576706348       16.4823703653
 Hg        19.9382963259       13.1863965252       19.7874800005
 Hg        19.8442777535       13.0064284947       26.5993719103
 Hg        23.1789779617       16.5040818472       26.4270221396
 Hg        26.6505039538       19.7790719703       26.4921619681
 Hg        29.9414835993       16.4426659468       19.5915747022
 Hg        16.6187514880       16.1731701187        6.8768977434
 Hg        16.0396557969       29.7284716751        7.6002393517
 Hg        26.5137725707       26.4009997919       13.0507706433
 Hg        23.2214802048        9.8740483098       19.7865542276
 Hg        32.7878111230       16.4297787829       23.0761556116
 Hg        26.5270320635       29.8114974916       10.0862320674
 Hg        19.8327404445       30.1128699743        5.9952952039
 Hg        10.9170743450        7.0641078090       21.9170877865
 Hg        21.9342548584       32.2244655596       35.6799921262
 Hg        21.1535127280       11.1964625031       36.2805615421
 Te        31.6615432951       14.9970875906       11.1952343538
 Te        35.5553260600       31.4804736820       24.0704557951
 Te        31.3752172023       21.6702041765       11.6092726662
 Te        11.7214861732       35.4355866709       19.6099991528
 Te        18.1698521549       24.8684200890       14.7945881466
 Te        28.1043640264       11.6044661989       24.6043234503
 Te        21.5317870572       21.4836960949       14.8669312953
 Te         8.8375823462       17.3751397500       11.2778802596
 Te        14.8479355976       18.0775650030       24.7248091546
 Te        31.6302127490       14.8002128084       17.9196752948
 Te        24.8411430583       11.5311838202       21.4901242544
 Te        31.4993641212       24.7783932479       21.3901061559
 Te        18.1745022685       21.4677214411       24.8345427402
 Te        18.4959130622        8.0564032157       31.9320203658
 Te        18.3837618900        8.0939435666       24.9047705155
 Te        15.0142312357       21.3176103575        8.2636614380
 Te        18.2732146838       18.1583004691       21.4909651237
 Te        21.5503435463       11.4996020356       18.1098349864
 Te        24.7939246727       31.3124542431       14.7806474670
 Te        11.5384088256       34.6804911327       24.8664202835
 Te        31.4091264689       11.5794339965       21.3398231070
 Te        21.5862746527       24.7408378549       24.7725175823
 Te        18.2684630187       31.3276619984       27.9496700395
 Te        13.5165619786       26.5249925546       35.5709364804
 Te        24.8759283549       28.1777199257       18.1454299533
 Te        11.6041631181        7.7088579122       24.4952494773
 Te        31.3960388126       18.1410052071       28.0616804299
 Te        31.5226579048       21.4460622595       24.7420208634
 Te        14.9699667238       28.0077584922       28.0201387136
 Te         8.3502652417       11.4731036456       18.0559765688
 Te        27.9950009802       21.5595824241        8.2635026032
 Te        24.9186022776        8.1881211810       18.1827404082
 Te        18.2741343164       21.5045594594       18.1349534337
 Te        18.2905455720       31.4645398568       21.6097460703
 Te        18.2692357102       14.7677406205       24.8799663455
 Te        11.6560795499       21.3835728861       11.5456731835
 Te        31.4703592908       18.2027810311       21.3177785350
 Te        14.9924647981       14.8892639857       14.9178753374
 Te        28.2984381361       14.8814747765       14.6838006293
 Te        18.1077882406        8.3069420952       18.1486966668
 Te        28.4037173285       31.6619596728       17.9198578744
 Te        28.1797965326       28.2295087893       28.2260990275
 Te        11.6923912192       18.1981968696       14.9270331231
 Te        31.7364817341       18.6031325107        7.9798283685
 Te        14.5692629987       11.4623392924       11.5321190379
 Te        18.1797553247       28.1957331705       18.1952592802
 Te        21.5918874603       11.4854107810       24.8339233168
 Te        24.9507426406       14.7626951042       18.1330113566
 Te        21.5979883671       31.4728618593       18.1868471085
 Te        24.9326930211       24.8054241971       34.6702621240
 Te        21.5039348241        8.1741563926       21.3809183586
 Te        28.2765414819       24.8700621719       24.7625483411
 Te        14.9119182820       28.0190735431       21.4342382836
 Te        15.0163441175       11.3714748290       24.8411529395
 Te        21.6379595727       11.5587635185       31.3663968325
 Te        25.0191280890       34.6447763258       18.1793440369
 Te        28.2410734083       18.2088405931       11.4632507739
 Te        28.1094341282       28.4163981937       34.9835771261
 Te        11.5590511187       17.9547859688       27.9805807637
 Te         7.8835924088       17.9239298716       31.0412088177
 Te        24.8594327121       24.7997708627       21.5091761337
 Te        23.8437688236       10.5766741412       35.7979883375
 Te        28.0960647941       31.5827324511       31.7115309949
 Te        14.7928403773       28.1253858544       14.7645605838
 Te         8.2137103529       18.2122000612       24.6452013800
 Te        35.0488853314       14.7831275095       14.6048502278
 Te        25.1993271383       14.6067827622       31.5763894448
 Te        24.9469259250       24.8504138451        8.3249996686
 Te        15.2257268349       14.5608454875       35.0791682463
 Te        28.1519050558       21.4752594110       21.4401680169
 Te        24.8334924086       11.5761380513       27.9904104492
 Te        11.7580752428       18.0815583793       35.1940349729
 Te        28.3497779763       21.3499495779       34.5313372276
 Te        17.9998671898       28.1855812950       11.4336001534
 Te        24.8955490496       18.1370949031       28.0774802714
 Te        18.2195454768       21.5130977984       11.5635622891
 Te         7.8355544770       31.4668531773       18.4476451323
 Te        15.2910751153       34.4346141254       21.4475564447
 Te        21.6265371273       14.7793320660       14.7648597657
 Te        31.3922846938       24.7857092254       14.9305391943
 Te         8.2165408299       24.7156512596       17.9733027785
 Te        21.5513852727       21.4582277160        8.1980319338
 Te        19.1984867553       32.3980505915       35.6191492028
 Te        14.8228621275       21.5350145387       34.6113095989
 Te        31.5833552662        8.4955651369       25.2320438834
 Te        18.0885046003       31.5110193471       14.9672151646
 Te        24.8594560959       18.1119335600        8.2296451919
 Te         8.2884716167       21.5674720397       21.4655736451
 Te        11.7955566820       11.5090101779       21.4943831128
 Te        11.2937590697       21.3635559100       31.6669109678
 Te         8.2974734134       24.6647476100       10.8580547625
 Te        34.8229401577       24.8250188812       24.6887267051
 Te        31.7730948737       31.6678651731       28.1629774456
 Te        11.7097558317       14.7652158430       24.7757274710
 Te        31.7611045600       24.5865365048       34.9047318416
 Te        11.7484421043       24.7166057965       28.1573643127
 Te         8.6196235770       15.2233476969       21.4998068048
 Te        11.5752826483       18.2221031752       21.3009234080
 Te        21.6702774069       34.7014205222       14.7612690746
 Te        28.0871443571       24.8001540222       18.1711960276
 Te        14.9785688476       21.4983470501       21.4445538933
 Te        11.4727114343       28.0477644911       18.0593959453
 Te        11.7096035414       14.9093245106       18.3223199265
 Te        35.6793799620       10.5048755972       23.7037759525
 Te        11.5885608522       21.4828350129       24.7679183526
 Te        18.2598013915       24.7580860476       21.4174404803
 Te        35.0909109011       28.2843841756       27.9676613577
 Te        24.8619300980       14.8962593308       24.7274765476
 Te        18.2359754391       14.7701527196       11.6807766701
 Te        28.3365412935       25.1318819624       11.3054033287
 Te        28.0762126791       34.6426430269       21.4390478810
 Te         8.3502466216       27.9095488378       21.5210778328
 Te        21.4768439527       24.8377857884       11.5098474369
 Te        32.4567374947       29.6044599761       13.5407933205
 Te        25.0852911559        7.9315671975       25.0621083993
 Te        34.8226011008       18.6216171169       10.8486444789
 Te         8.0666233465       28.3414581295       14.7588724926
 Te        24.4910798085       34.6977672555       32.1312826759
 Te        15.2272156270       32.0891146929       11.6780375100
 Te        17.3672974093       34.2204202388       31.5440242157
 Te        14.8611586870       31.3459515703       18.1391310120
 Te        21.5783570530        8.0866659399       28.1602065571
 Te        34.8503856730       21.4136041443       21.4763695366
 Te        11.6239978708       31.2195221695       21.4450632206
 Te        14.7487685570        7.9192138007       28.0949508421
 Te        18.1438242006       35.0373962266       25.2283192511
 Te        31.6617880689       18.2579589951       14.6876158621
 Te         7.3768717447       26.5040801333       29.5331631676
 Te        24.8713491645       31.3906764882       21.5787992259
 Te        14.8889621588       24.7670889022       24.7856202977
 Te        21.6141112477       21.4566165097       34.7242193244
 Te        27.9877252527        8.4525534982       21.2548506651
 Te        18.2622835252       28.0148031272       24.7609145567
 Te        11.0155833242       15.0172262921       31.3163714058
 Te        24.8038960736       31.6002668185       28.2447409352
 Te        14.8871658038       17.8781229183       31.4752550576