     691
 i =      101, E =    -16914.3452134339
 Hg        19.8869916464       26.4655618118       19.7769994951
 Hg        23.2122837202       29.7571061339       19.8567513461
 Hg        26.5773555399       32.7159163578       19.7721731195
 Hg        29.6635187001       35.9244613341       19.5721061212
 Hg        36.8027875103       22.5519776422       30.6991007719
 Hg         7.8308761418       12.7465163611       20.5282828843
 Hg         9.7817442461       16.8126144222       19.4421586746
 Hg        13.3353630596       19.8941010602       19.7658792208
 Hg        16.5545181498       23.1803835929       19.7110518365
 Hg        23.2683651970       26.4760503311       23.2088772336
 Hg        26.6105220799       29.8536873201       23.3230054744
 Hg        29.8878558591       33.1062189835       23.1830467138
 Hg        32.2675353168       35.7991117259       21.8462350391
 Hg        23.7214391266       29.1210190061        6.7415913411
 Hg        16.4987794559       13.1073801610       16.6323959654
 Hg        10.0669068086       13.0650935882       23.3344578420
 Hg        13.1771082186       16.5089223530       22.9349520142
 Hg        16.5671910980       19.7820829329       23.1440524327
 Hg        19.8646102682       23.0709931061       23.1275788958
 Hg        26.6417738900       26.4922617182       26.4739248773
 Hg        29.9729726064       29.9092949511       26.7446132302
 Hg        19.8761212516       16.4209424098       16.3909686509
 Hg        13.4669999542       19.6602522120       13.0766435950
 Hg        13.3061818881       13.0137955987       26.5497425952
 Hg        16.5103238525       16.4672218391       26.4205125639
 Hg        19.8296859225       19.7686225267       26.4637568646
 Hg        23.2714437818       23.1085079050       26.4341545153
 Hg        29.9127055634       26.5976610906       29.8178007974
 Hg        32.1132748789       30.0433772642       30.3411319098
 Hg        12.7844950476       35.2267800382       22.3786881342
 Hg        36.1594917784       25.9488015038       28.8187619283
 Hg        23.1785273270       13.2285046664       23.1214080709
 Hg        13.4826955930       10.1935513055       29.2413339766
 Hg        16.3934879368       12.9102229349       29.9823049601
 Hg        19.8441538812       16.3685931143       29.7626793106
 Hg        23.2118567378       19.7991783986       29.6865979924
 Hg        26.5414856581       23.1329020689       29.7988716425
 Hg        29.9742174199       13.0813520428       16.1547549800
 Hg        26.5306254618       16.5344549894       23.0443464535
 Hg        33.1055786752       19.6824288727       26.3803786538
 Hg        26.5568697470       19.7816089208       19.7224966001
 Hg        22.8758410294        6.8900124110       16.7105556424
 Hg        26.6758025801        9.7802237160       16.4284034122
 Hg        19.9342551706       13.0324139357       33.1381044866
 Hg        23.3278130955       16.3840332595       32.7052652858
 Hg        26.5778990187       19.6733627950       32.9340167351
 Hg        30.1157727478       23.2384253784       32.7605974781
 Hg        23.2055129847       23.2573558367        6.7681806638
 Hg        36.1764447418       29.3268659131       25.5884918224
 Hg        23.5587997803       13.4356076155       36.1569830030
 Hg        26.8811504482       16.5449775700       35.9986583507
 Hg        29.0802500234       19.1419453744       36.0939783539
 Hg        30.7912726394       22.7468110224       36.6225813659
 Hg        23.4221914666       10.0647943714       12.9496024105
 Hg        23.2162184456       19.8075073693        9.8882638556
 Hg        13.3476514293        9.8088707852       23.1998839934
 Hg        29.5647425975       23.4978073986        7.0567784546
 Hg        32.6507954300       29.6549733405       16.3675302334
 Hg        16.4878524328       19.7286233493       10.1809142751
 Hg        26.6919314197       13.1669030176       13.0641727219
 Hg        19.8653136521       23.1294779747        9.8401846338
 Hg        13.3139479544       13.2016311556       13.4240064384
 Hg        23.2366602489       16.4686119273       19.7373968167
 Hg        26.8186769409       16.4181292163        9.7264399653
 Hg        26.4028750021       16.4132092582       29.7784000466
 Hg        33.3095775235       23.1528523159       16.5821736895
 Hg        16.5600490561        9.6574627974       26.6369062441
 Hg        33.1516756886       13.1623859686       19.6782859164
 Hg        36.2107431225       16.9985248414       20.0536936212
 Hg        19.9311829680       19.7921510590       19.7726982370
 Hg        16.5617301493        6.8903779888       16.2812146025
 Hg        13.5799483079        5.9897414941       24.1366302048
 Hg        16.4939280335       16.6248998489       13.1030511735
 Hg        19.2038676532       13.9513744214        6.8552775182
 Hg        10.1771172258       13.2805029591       16.6416030228
 Hg        16.6482672256       16.5286873793       19.8034232435
 Hg        29.5203302722       23.3708757853       13.1615343133
 Hg        29.5777008520       29.8548256332       19.7520314126
 Hg        33.3610506298       16.4712216179       16.2337427104
 Hg        29.8266225610       19.8202797473       23.0583632161
 Hg        20.1398250761       13.0265276387       13.0606578495
 Hg        29.9013649263       19.9304167897        9.8945685012
 Hg        16.9057329029       22.7306950933        6.7156735875
 Hg        13.0518858768       30.6287820704       10.3740122222
 Hg        20.2060100211       36.7099189089       12.3224505317
 Hg        13.3080831610       16.5048682801       16.5626155739
 Hg        22.7992303337       29.9593557751       13.0174325981
 Hg        26.5849871906       32.8582800634       13.2506117932
 Hg        23.1820539536       23.1805680327       19.7913011425
 Hg        13.0573183446       26.6580707648       12.8695193295
 Hg        16.2974658714       29.9079457278       13.1453219099
 Hg        19.5366111491       32.8581748866       12.9950158387
 Hg        23.9094692491       36.1682215552       14.0852093039
 Hg         8.3474267823       19.4200320560       13.0035418836
 Hg         9.6378208181       23.2239594307       12.8198496978
 Hg        16.5559879084       26.5410511613       16.4754290243
 Hg        19.8752673958       29.8377197670       16.5537482889
 Hg        23.3176583929       33.0232501413       16.4882827739
 Hg        26.5164937922       36.0583525783       16.2538900157
 Hg        35.9574718148       23.3147455724       19.7895328933
 Hg         9.8481337508       19.9274527298       16.5034760918
 Hg        13.1245558470       23.2436537233       16.2557964193
 Hg        19.9251719304       29.6709417708       23.1170890359
 Hg        23.2409208108       33.0988352934       23.2391546915
 Hg        26.0588262913       36.1291441071       22.8334888195
 Hg        36.1307546107       22.7824837255       26.1312028396
 Hg         6.6350424229       16.8710467989       22.6585905272
 Hg        10.0094050605       19.8314421269       23.0581459273
 Hg        13.2866023525       23.0865939926       23.0923620148
 Hg        16.6007759763       26.3539301313       23.0977864263
 Hg        23.2408500864       29.8485856170       26.5665269594
 Hg        26.6248837341       33.2603335524       26.6886011522
 Hg        29.6556401019       36.9562171545       24.0883252760
 Hg        29.9152823749       23.1546350509       26.3952031459
 Hg        10.3557555552       10.1095914358       19.5281832679
 Hg         6.8298248033       13.7992718669       24.9392472954
 Hg         9.8568859651       16.3928826980       26.2711921730
 Hg        13.1851173427       19.7302349490       26.4133735877
 Hg        16.4699954805       23.0914455649       26.5155027635
 Hg        19.9180405355       26.3517571006       26.4123364038
 Hg        26.5518429664       29.9928223433       29.9108820903
 Hg        29.4955590320       32.6403042412       29.5204160985
 Hg        26.5743085762       16.4349983640       16.4363443334
 Hg        19.8019125777        9.5677434819       29.9815353639
 Hg        10.7838896239       12.8478066971       29.6496503151
 Hg        13.1340079068       16.0831989701       29.8366369016
 Hg        16.4988588748       19.6769582001       29.8390636638
 Hg        19.8401573377       23.0404747851       29.6947357669
 Hg        23.2347818564       26.4255848849       29.7209988626
 Hg        29.7069264046       29.4960002120       32.7526258947
 Hg        26.6096469938       13.1132771808       19.8321276227
 Hg        32.5539652103       26.7864771508       13.3672881906
 Hg        12.5522812687       12.6309292174       32.6473404643
 Hg        16.6147824408       16.2952672744       33.1997535120
 Hg        19.9386085196       19.7862647599       33.0372160876
 Hg        23.2317246993       23.1219413864       33.0066725517
 Hg        26.6550461952       26.7061786185       33.1519262529
 Hg        33.2504469037       26.6101010590       26.4365080985
 Hg        23.3836017177        7.0394383134       23.0855699774
 Hg        26.2413867129        9.7301203621       23.2065831098
 Hg        17.6408547153       13.8689923482       36.2321570320
 Hg        20.3392562951       16.7742385977       36.2283242719
 Hg        23.4232462453       19.7878443813       36.1513697684
 Hg        26.4396630595       22.7820188487       35.9783481370
 Hg        29.6446167522       26.2284268659       35.4266195755
 Hg         7.1909154531       32.1005984336       21.0111216016
 Hg         7.1311864779       29.5563928256       23.3626525016
 Hg        10.1777206825       32.6618935236       23.3765737914
 Hg        30.0818133745       16.5150463137       13.0050642968
 Hg        33.3882647436       19.8640312613       12.8999480693
 Hg        26.5215504116       19.8188610986       13.1601901564
 Hg        26.7810534051       10.3853323764       29.6065780006
 Hg        26.0283068891       20.1320179830        6.7148208223
 Hg        16.6284116275       13.1547852047       23.1980644439
 Hg        34.7996817021       23.6336751524       13.0560146369
 Hg        26.3332658314       26.8283511246        6.8773717993
 Hg        32.9501410413       16.3450269296       29.6112831777
 Hg        36.5829149997       26.2318788885       22.8876942515
 Hg        32.6816401931       32.8039236089       19.4850436384
 Hg        22.8426548841       16.5997708144        6.9054994090
 Hg        26.3352083667        6.4317938442       19.9810775623
 Hg        30.1456257943        9.7967723995       19.2258023501
 Hg        35.9926302366       13.3302122772       23.2548959025
 Hg        30.0155506493       20.0544255107       29.8041966367
 Hg        29.8142692923       13.3566107563       29.5831523848
 Hg        29.9205958406       13.4154888864       23.1262310766
 Hg        36.1246436540       16.4562230540       26.5643076502
 Hg        26.5682298119       23.2466960976       10.1808093396
 Hg        29.7650413249       23.1206806900       19.7744791407
 Hg        32.5254867823       23.7186760721       10.0759855636
 Hg        16.6449177390        7.7668336820       29.9962321184
 Hg        33.2825624839       26.1957168272       19.6567919172
 Hg        37.1327365446       19.8586864755       16.6296087760
 Hg        10.4026077589       29.6101949927       13.5681787020
 Hg        13.0884881420       32.3827116657       13.3284414117
 Hg        16.8826027094       36.0643116368       14.3537405680
 Hg        33.2065404347       19.8362042749       19.6618747988
 Hg        23.2142524237       19.7719535831       16.4646050764
 Hg         8.0220773742       26.4884356090       12.7586643071
 Hg        13.1152997292       29.7739916912       16.3519798521
 Hg        16.4963525923       33.2024673355       16.6591604530
 Hg        20.3284800641       36.0869164021       16.7510763813
 Hg        29.6766743996       10.3409033910       26.5241532105
 Hg         6.0149684129       23.1977493916       16.6203784758
 Hg         9.8005024744       26.5362078110       16.2057996986
 Hg        16.5911528550       29.8404164102       19.9622877180
 Hg        19.9303700485       33.0334331167       19.8829854015
 Hg        23.2788137305       36.2747695809       19.6427371108
 Hg         7.1409865677       19.7658749182       19.6994701842
 Hg         9.9266009166       23.1509577887       19.6517609378
 Hg        13.2281803212       26.4208317461       19.6951857356
 Hg        20.0244595655       33.2073080477       26.3567434585
 Hg        23.3021497674       36.9981847293       26.2719924320
 Hg        33.1289033656       23.1157328227       23.0692751312
 Hg         6.9897455048       20.2167352987       26.1909412339
 Hg        10.0258113334       23.2148158322       26.4422401996
 Hg        13.1847276281       26.4828615154       26.3006100047
 Hg        16.5574950214       29.6856574364       26.3283014298
 Hg        23.2172364755       33.2728522084       30.0479491380
 Hg        26.3691138217       34.9373258206       30.3068587078
 Hg        23.2241246115       16.4976104093       13.0920160838
 Hg        19.8707909772       23.2157385279       16.4568257259
 Hg        23.2466887424       26.4675025707        9.9390784488
 Hg         7.0109333695       16.7577988149       28.5904078682
 Hg        10.1707345106       19.4358960503       29.9293942880
 Hg        13.0658522493       22.7458018523       29.8895803102
 Hg        16.6464785427       26.4419210437       29.8191210794
 Hg        19.6401239527       29.4421267831       29.7027824284
 Hg        22.8285063246       12.2249632774        6.3098082828
 Hg        26.3240294420       13.4400435331        7.4429784064
 Hg        13.0011517108       19.4722228619       32.8674304199
 Hg        16.5723014000       23.2052819691       32.9553982434
 Hg        19.8052430138       26.4959078831       32.6855021872
 Hg        23.1304392699       29.8003947016       32.9606920008
 Hg        29.7605017768       18.7318594462        6.2040528960
 Hg        32.2285911824       21.1688307743        7.1817700643
 Hg        23.3579440617       13.3555798513       29.8209385728
 Hg        14.1801722418       16.9017614744       36.0386432488
 Hg        16.8207138702       20.1926797143       36.0308445301
 Hg        19.7857766643       23.1168141098       36.1245855746
 Hg        22.9112050655       25.9791320848       36.1599277503
 Hg        24.3553893408       29.7026768026       36.5977809076
 Hg        13.4490841164        7.0086011526       19.5989141452
 Hg        19.8889378040       19.6354050050        6.7409313756
 Hg        19.7569456675       26.5409281139       13.0603344575
 Hg        23.2046463304       26.5717232758       16.4073357756
 Hg        19.1487668195        6.8017464354       14.0992429758
 Hg        26.4657525419       26.4781590963       19.8524460085
 Hg        16.5341531119       10.2351496796       19.7610810366
 Hg        29.9307360085       26.5231688030       23.0483342013
 Hg        10.4346516971       16.1929237973       13.4133299395
 Hg        19.8766890328        6.6499852516       19.5725174698
 Hg        29.6039377697       13.3624512018       10.1416856279
 Hg        26.5089531759       13.2166078149       26.3457696455
 Hg        26.4341878673       23.1337097243       16.4861144615
 Hg        29.9547994460       16.3748010156       26.2259859188
 Hg        19.9611825235        5.8879083126       26.1834356480
 Hg        19.7851788764        9.9212203576       16.4732762139
 Hg        19.8804185740       16.4688448055       23.1686126018
 Hg        20.3011421521       26.2453398170        6.7277391924
 Hg        36.2627668492       19.0580117465       28.7204929609
 Hg        26.5825977176       29.8902200274       16.6274635907
 Hg        23.6090286373       10.4492111497       33.0081039726
 Hg        22.6433780262        6.2816526980       12.0887576431
 Hg        30.1280231584       10.9573460909       12.5661322356
 Hg        32.7216398393       13.5898012868       13.3885497303
 Hg        35.0575247794       16.7084277668       12.6416273369
 Hg        36.3888072221       19.7610525610       23.2902832783
 Hg        29.8405375498       16.3937489831       32.7514558465
 Hg        13.8765040260       36.2119616082       17.9878131903
 Hg        29.7458518861       26.4647553965       16.5654782037
 Hg        29.9448401613       19.8318943582       16.3556408358
 Hg        23.3657281939       12.9244706594       10.1443597546
 Hg        33.2295082862       30.0789269200       23.6331911555
 Hg        23.2127598457        9.6776486243       26.3328024730
 Hg         6.0461999452       29.4737959194       18.7767136617
 Hg        13.1744394583       32.9679687382       19.6234189523
 Hg        16.9479810814       36.3926496728       20.2458404616
 Hg        23.2445641920       19.8282969241       23.1168551394
 Hg        23.2521144614       13.1390754221       16.4681018369
 Hg        29.7781227301        8.1079932473       23.1978604199
 Hg        32.8525817710       10.3265462943       23.3813742380
 Hg        16.4003658914       13.2045948939       10.1773029598
 Hg         6.8768482048       25.9019740654       20.0699434151
 Hg         9.8800049898       29.6895622592       19.7213189463
 Hg        16.8794966267       33.2380246109       23.4754648280
 Hg        19.8324798268       35.9168980914       23.2172252375
 Hg        13.1523929995       23.0878113593        9.7805359391
 Hg         6.7578962986       23.1669311281       23.2848725830
 Hg        10.3117567388       26.4765940791       23.1776635394
 Hg        13.1907664986       29.4155413624       23.1749487599
 Hg        19.4445000053       34.7280595362       29.8042263918
 Hg        26.0359515924        6.8731985281       14.0368114697
 Hg        36.9942664734       13.3790210109       18.7682988755
 Hg        16.4225813224       26.4011036785        9.7257435431
 Hg         6.8797995756       23.8082598768       28.8525115778
 Hg        10.1931354126       26.5546373934       29.6619117152
 Hg        13.2588764702       29.6696030878       29.4916871633
 Hg        16.2169023647       32.5493931167       29.3897049562
 Hg        32.9801493665       23.3299554958       29.9249289541
 Hg        23.6115269571        8.2269429697       29.8871182523
 Hg         6.3188246247       20.0803827598       30.5818377827
 Hg        13.3249015219       26.6019511392       32.7306721160
 Hg        19.3338503034       32.4960195220       32.7406001848
 Hg        17.1587785265        6.7828891581       22.7988532096
 Hg        11.2466748250       21.9027808725        6.7397804307
 Hg        12.3024021228       20.3024680546       36.6757081653
 Hg        14.1837660694       23.8560329610       36.0553737680
 Hg        16.3597689094       26.4635471750       35.9836058342
 Hg        19.6946434597       29.6239985473       35.8571752981
 Hg        13.9021852049       25.2831655640        6.5851849587
 Hg        19.8954627059       19.8331001127       13.1946228933
 Hg         6.9935761846       26.4134894945       26.6857112717
 Hg        13.5795008764       13.1222393028       19.7456947840
 Hg        29.4103241893        6.8683514075       17.2475033466
 Hg        35.8277942302       10.7402761074       20.9775455843
 Hg        19.5992089969       30.0141716276        9.9486771878
 Hg        13.3209241468       32.8376007781       26.2390112961
 Hg        19.9430502902        9.8305301131       23.1982377878
 Hg        13.5230821068       19.4936065041        6.7212882386
 Hg        26.5577757716       23.1581604754       23.1617264104
 Hg        34.9180537247       29.7155078448       19.6723892687
 Hg        23.1110168622       23.1863945622       13.2093320635
 Hg        29.5730395853       29.7626794553       13.2862775508
 Hg        16.3928629811       10.1118070560       13.2805452563
 Hg        19.7581790348       16.4663748778        9.9598989229
 Hg        10.5567532883       19.3646334147        9.9245828340
 Hg        16.4820527890       23.1661581486       13.1789664692
 Hg        16.6179978394       19.8581942274       16.4831703081
 Hg        19.9389276757       13.1994778557       19.7848304281
 Hg        19.8590826486       13.0297304269       26.5767265830
 Hg        23.1799262151       16.5087565751       26.4135219198
 Hg        26.6434198173       19.7765823628       26.4773274513
 Hg        29.9339681155       16.4529742373       19.5899199764
 Hg        16.6307655962       16.1750788219        6.8933007909
 Hg        16.0592385082       29.7003814895        7.6132252419
 Hg        26.5067904176       26.3918838761       13.0617799498
 Hg        23.2231109154        9.8939687597       19.7804912521
 Hg        32.7833418971       16.4367775461       23.0760397022
 Hg        26.5301985141       29.7804435997       10.0955338505
 Hg        19.8536500038       30.0857017176        6.0097316772
 Hg        10.9103924852        7.1443624261       21.9368085921
 Hg        21.9713423983       32.2479351727       35.5807315091
 Hg        21.1141121857       11.2099008936       36.2355639144
 Te        31.6457961375       15.0034608045       11.2259517578
 Te        35.5427598034       31.4408649673       24.0165629173
 Te        31.3670561703       21.6883093427       11.6262826061
 Te        11.7453376603       35.4061008052       19.6073417906
 Te        18.1804898106       24.8525023336       14.7974388691
 Te        28.1004188500       11.6235886760       24.5914543489
 Te        21.5348378396       21.4792929092       14.8690189307
 Te         8.8603931549       17.3955759888       11.2928958085
 Te        14.8553321443       18.0893780530       24.7200095250
 Te        31.6224977833       14.8181642409       17.9184357238
 Te        24.8409887407       11.5505493797       21.4769647238
 Te        31.4832760844       24.7644275696       21.3899545686
 Te        18.1807897461       21.4667230715       24.8241232448
 Te        18.4990770834        8.0483367898       31.8694821370
 Te        18.4134146326        8.1125249534       24.8877836948
 Te        15.0225818421       21.3157946747        8.2775962542
 Te        18.2792894753       18.1680074312       21.4875818271
 Te        21.5500252934       11.5160379215       18.1124687277
 Te        24.7926241654       31.2805847670       14.7895577823
 Te        11.5624247557       34.6592989904       24.8478179570
 Te        31.3983454144       11.5934100454       21.3376898483
 Te        21.5878022659       24.7279067481       24.7596455597
 Te        18.2720738929       31.3119013986       27.9305547037
 Te        13.5580477711       26.5540444307       35.5283691133
 Te        24.8704763959       28.1553876016       18.1523007514
 Te        11.5956694754        7.7934566842       24.5036424272
 Te        31.3898814955       18.1417147530       28.0468748897
 Te        31.5119482765       21.4390639327       24.7338734420
 Te        14.9809679255       28.0005546240       27.9966753521
 Te         8.3742360142       11.5121441249       18.0613982432
 Te        28.0168186150       21.5546044078        8.2914073268
 Te        24.9037023038        8.2006924475       18.1819965495
 Te        18.2797636906       21.5027645158       18.1339391544
 Te        18.2938016621       31.4472906367       21.6067191200
 Te        18.2793682450       14.7885746559       24.8683400510
 Te        11.6685552019       21.3798878908       11.5544566427
 Te        31.4654689217       18.2012962016       21.3157500396
 Te        14.9994018900       14.9025968145       14.9250943622
 Te        28.2872145735       14.8946667767       14.7005949132
 Te        18.1145389540        8.3286560165       18.1655993701
 Te        28.3901097483       31.6335945867       17.9254856703
 Te        28.1793955168       28.2046827649       28.2011876885
 Te        11.7098462229       18.2029166155       14.9233788638
 Te        31.7689140889       18.6004228990        8.0427321739
 Te        14.5844484346       11.4812484456       11.5577926343
 Te        18.1901949099       28.1728042030       18.1995636497
 Te        21.6007699324       11.5155805893       24.8141149135
 Te        24.9428416534       14.7779370233       18.1309207459
 Te        21.6019480247       31.4398490249       18.1925185083
 Te        24.9290215810       24.7858088484       34.6354684371
 Te        21.5157951973        8.2068347451       21.3888529481
 Te        28.2710473288       24.8560447546       24.7522947096
 Te        14.9209743590       28.0058199355       21.4280922891
 Te        15.0409890696       11.3988979369       24.8377014146
 Te        21.6326777595       11.5628679019       31.3367216291
 Te        25.0092129472       34.6118871612       18.1741457153
 Te        28.2412293156       18.2100049625       11.4784671702
 Te        28.1016756476       28.3873395362       34.9405995814
 Te        11.5825717269       17.9407449332       27.9952247993
 Te         7.8801746589       17.9490689788       31.0074406659
 Te        24.8592903677       24.7872046670       21.5073655768
 Te        23.7969680366       10.5798512920       35.7656022837
 Te        28.0817266393       31.5511272032       31.6802640375
 Te        14.8118587254       28.1009520902       14.7718361943
 Te         8.2471185800       18.2231393188       24.6408974694
 Te        35.0222453500       14.8146204225       14.5886867372
 Te        25.1863252457       14.6181762250       31.5531819153
 Te        24.9442420846       24.8266220033        8.3325156992
 Te        15.2114927554       14.5988726930       35.0301539395
 Te        28.1445025558       21.4660958692       21.4383271553
 Te        24.8332802016       11.5989774153       27.9757007031
 Te        11.7843057109       18.1554811949       35.1819275581
 Te        28.3354616629       21.3366447462       34.5111397192
 Te        18.0140603709       28.1621046728       11.4442936800
 Te        24.8947094491       18.1370308031       28.0606662422
 Te        18.2235625200       21.5022428536       11.5700549299
 Te         7.8626012257       31.4524953870       18.4385263541
 Te        15.3100872752       34.4210607174       21.4329098617
 Te        21.6219040376       14.7898950273       14.7740746643
 Te        31.3789933413       24.7849485496       14.9398902694
 Te         8.2317088722       24.7084325332       17.9633732904
 Te        21.5551387194       21.4413431805        8.2168307322
 Te        19.2436867864       32.4262190117       35.5583658755
 Te        14.8421028331       21.5677668258       34.5964491775
 Te        31.5591846362        8.5143446103       25.2041456931
 Te        18.0963593218       31.4733580335       14.9866274603
 Te        24.8638591342       18.1109551783        8.2461403476
 Te         8.3204010257       21.5720431291       21.4547680488
 Te        11.8138709064       11.5467992904       21.4811047139
 Te        11.3053557049       21.3756167170       31.6330307748
 Te         8.3508161483       24.6662341594       10.8612903488
 Te        34.8126105148       24.8107977172       24.6724180659
 Te        31.7555435524       31.6413516765       28.1528895147
 Te        11.7305309502       14.7822686624       24.7665886080
 Te        31.7441043816       24.5603328846       34.8736708823
 Te        11.7510405750       24.7232571697       28.1354039372
 Te         8.6382214872       15.2508803902       21.5085521347
 Te        11.5920186810       18.2321289794       21.2972721389
 Te        21.6686329583       34.6618025849       14.7684182754
 Te        28.0779491455       24.7868597571       18.1798566040
 Te        14.9884370124       21.4980656197       21.4420215631
 Te        11.4952430911       28.0404604517       18.0551696025
 Te        11.7243264601       14.9334492800       18.3197599883
 Te        35.6591755028       10.5132484116       23.6829122298
 Te        11.6095683937       21.4794050943       24.7662092430
 Te        18.2621683707       24.7494599853       21.4164224088
 Te        35.0646032892       28.2744015571       27.9318385371
 Te        24.8591683876       14.9075616884       24.7135767286
 Te        18.2420461331       14.7761876409       11.6921156068
 Te        28.3261031333       25.1208874474       11.3236841492
 Te        28.0603067194       34.6250528810       21.4360492877
 Te         8.3716005586       27.9058041815       21.5059008313
 Te        21.4854748294       24.8216129692       11.5242213859
 Te        32.4397694493       29.5920883856       13.5630305150
 Te        25.0848996853        7.9669262376       25.0504521972
 Te        34.7639388287       18.6384089324       10.8392837642
 Te         8.1113705028       28.3297970440       14.7515550010
 Te        24.4533144314       34.6224828602       32.1257120225
 Te        15.2548275485       32.0613780518       11.6941927414
 Te        17.3933812489       34.2215894180       31.4902965381
 Te        14.8792460411       31.3247127011       18.1497891918
 Te        21.5914153173        8.1078254679       28.1235893466
 Te        34.8284698664       21.4116840734       21.4670214184
 Te        11.6345793531       31.2087465225       21.4411045723
 Te        14.7778534409        7.9175988510       28.0280281530
 Te        18.1574834515       35.0072144625       25.2142725157
 Te        31.6537326414       18.2692384892       14.6944919920
 Te         7.3936995869       26.5048440586       29.4902263971
 Te        24.8722342772       31.3746216878       21.5772062624
 Te        14.8972827629       24.7609218579       24.7760746239
 Te        21.6067882968       21.4641743266       34.6876913583
 Te        27.9643003777        8.4728997090       21.2473287904
 Te        18.2671449291       28.0043237068       24.7437789827
 Te        11.1022154396       14.9457460823       31.3532472335
 Te        24.8115813794       31.5639800304       28.2181608525
 Te        14.8954411618       17.9060055581       31.4516933093