    1259
 i =      129, E =    -42117.5877825167
 Cl        20.5091205014       42.8905016139       20.5356922068
 Cl        25.9991697815       42.6364976345       25.9696057264
  S        40.1778855342       17.4521003622       26.1296180873
 Cl        42.5734805845       20.3700702396       26.0224651317
 Zn        33.2738354335       21.7123803307       41.4165998071
 Se        20.0517318567       34.9788705788       28.9436626997
  S        23.0785248928       37.9162998493       28.8778104270
  S        25.9674367798       40.2731248394       28.8742237282
 Cl        28.8138242045       42.5785292095       28.7954339716
 Se        20.0468011226       31.9162759397       20.0230344814
  S        34.3756917860       40.3721202958       31.6352519555
  S        11.5714965209       25.6629006541       17.5683331287
 Se        23.0167446127       31.9597017649       23.0179837604
 Zn        36.2876654775       21.4646349771       15.8961120871
 Se        23.0257084318       34.9317941532       20.0676751806
 Zn        33.2796956967       41.4153433763       21.7031208133
 Se        25.9981190741       16.9785044346       28.9870074588
 Zn        10.8154058075       29.7835003109       16.5651207571
  S        32.0001372391       14.3728180918       20.0377658455
 Zn        16.3869178123       35.6143097850       16.1263772435
  S        34.9362937386       17.1569853650       20.0111578055
 Zn        22.2104733461       41.1858957033       16.5593582108
  S        40.6562234122       30.1626240807       16.5048759134
 Se        23.0634446861       25.9441597985       17.0386533617
 Cl         9.3784091604       28.7781429115       23.2035821837
  S        11.7985308144       31.7346508484       23.0874389289
  S        25.9951460133       37.9182151483       20.0924078289
  S        17.3753050366       14.5572351398       34.8991772344
  S        19.9746669113       17.1347019007       34.9513600536
 Se        23.0322520925       20.0825765243       34.9162800915
 Se        25.9888549068       23.0688492476       34.9649463912
 Se        28.9703661832       26.0044812379       35.0023284359
 Se        31.9309481065       28.9938386046       34.9261940241
  S        34.7984882072       32.1138786196       34.8209268500
  S        28.9063846960       28.9593520624       37.9399559225
 Zn        41.2664857243       28.0432392233       16.9678194943
 Zn        10.6464513929       27.1224351164       19.1330455621
 Zn        13.1353844640       30.4433423036       18.7052057754
 Zn        15.8141830607       33.2920120087       18.5475726511
 Zn        18.7076379076       36.1247752171       18.5558982106
 Zn        21.6102879206       38.8624087882       18.7091073366
 Zn        24.8785558983       41.3552013378       19.0628731931
 Zn        26.8746308916       10.3226033194       15.8080614822
 Se        17.0765862403       20.0533734564       28.9949663002
  S        37.3771760208       34.8983239294       34.5561229631
 Cl        25.9785509060       42.5687237690       31.6240210542
  S        11.4752436619       23.4293073971       37.1189609439
  S        14.5408198507       25.9348058975       37.4499813759
  S        17.3955190161       28.8351733724       37.3403064590
  S        20.1407875821       31.8399264967       37.4951721218
 Zn        41.2783303159       16.2266750499       21.9639399640
 Cl        23.2842329661       17.5908111755       42.6769253553
 Cl        26.0146088380       20.3702148678       42.5676881107
  S        31.9532439550       32.0063652330       37.6322478124
 Cd        24.5394759588       33.4435100567       21.5432813676
 Zn        10.6520659852       24.3786684585       21.6431034112
 Zn        12.9129906137       27.3757359693       21.6938334809
 Cd        15.5492387089       30.3652201228       21.6218059077
 Cd        18.5518492729       33.4400186381       21.4750360356
 Cd        21.6265603508       36.4511004772       21.6170294476
 Zn        24.6216800191       39.0921733409       21.6310626325
 Zn        27.6189276745       41.3497906267       21.6387692580
  S        20.0522548807       37.6283563630       19.9883802494
 Se        20.0381304547       22.9742327862       28.9889931279
 Zn        36.3661699991       13.4848560473       24.2901272513
 Cl        28.9525400629       22.9835009335       42.5720806989
 Cl        31.4829391080       25.9348898401       42.6284162198
 Cl        34.4435862535       28.3525708205       42.7864872920
 Zn        10.5804603752       33.2655363121       30.2926799744
 Zn        35.2660424917       23.8667958643       41.6780049355
 Zn        33.6955852979       15.6410074326       13.8937413514
 Zn        13.4077668591       16.0581320392       21.5591617952
  S        20.1392351069       14.6133798991       37.7449894672
 Zn        13.4067542772       35.9344853425       30.3706572061
 Zn        10.6570322024       21.6330713843       24.4504883374
 Zn        12.9140189444       24.5300397916       24.5370931111
 Cd        15.4789937337       27.4473562506       24.5399015836
 Cd        18.5429673390       30.4483315042       24.5323783884
 Cd        21.5411496399       33.4476160149       24.5236805305
 Cd        24.5446515671       36.5208683106       24.5287882804
 Zn        27.4644669456       39.0906855241       24.5254829686
 Zn        30.3735681298       41.3442242492       24.4553844434
  S        23.1333139447       40.2208977933       20.1861829348
  S        22.9380200009       17.2227632679       37.6817284011
  S        25.9790633747       20.2107063968       37.8210960560
  S        28.9223572465       23.0878914024       37.9321449051
  S        31.8487373532       26.0521968299       37.9154859997
  S        34.7892380046       29.2121470589       37.6107115998
  S        37.4513072735       31.8949590044       37.4550218167
  S        25.9995661510       14.0958533049       20.0965764214
 Zn        29.8680799482       16.5584251441       10.8108189781
  S        23.0976284845       34.6384636209       37.3688508857
 Zn        16.0659382303       38.5844375012       30.3705492920
 Zn        10.6547762434       19.0710124664       27.2035126523
 Zn        12.9702875027       21.6368436266       27.3911330408
 Cd        15.4802404928       24.5367082878       27.4545035673
 Cd        18.4783660443       27.4538190642       27.4725928933
 Cd        21.4789678058       30.4446599296       27.4727890832
 Cd        24.4664450888       33.4527224344       27.4551169642
 Cd        27.4504575869       36.5133099988       27.3985254699
 Zn        30.3575867077       39.0171505843       27.3011872321
 Zn        33.1200469727       41.3599939992       27.2871337912
 Zn        39.5302562530       21.2962076069       14.1499342140
  S        26.0456313444       37.4717915004       37.4160437623
  S        28.5944628792       40.3412674765       37.2792834496
  S        23.1179650808       17.3124533771       14.5770054777
 Cl         9.0548434351       20.5145049821       31.4026362320
  S        34.5830250483       34.9185452371       37.4020933697
 Zn        18.7314917602       41.4210751321       30.2836669489
  S        23.1483949559       37.3221958101       34.5818483322
  S        25.8623528673       40.1637399557       34.5323012035
  S        23.1335483103       20.2450047443       40.1760352384
 Zn        10.8146913708       16.5616138055       29.8732151371
 Zn        13.1304739042       18.7848170007       30.4499436463
 Cd        15.5545935948       21.6106733282       30.3940130816
 Cd        18.5469430300       24.4760453449       30.4581023425
 Cd        21.5377710159       27.4629732291       30.4392317817
 Cd        24.4679295817       30.4550593419       30.4333583099
 Cd        27.4527085083       33.4349696137       30.3761138649
 Cd        30.3564602243       36.4446692371       30.3005381989
 Zn        33.1998287401       38.9327275888       30.3642475922
 Zn        35.7189747188       41.2757609799       30.0348058937
 Cl        26.0902168476       42.6518470948       20.4803252846
  S        23.0557824730       40.0930037742       31.7953253899
 Se        22.9913804129       25.9564969775       28.9405420888
  S        11.7948030037       23.0760039009       31.7720885704
  S        14.0690700106       25.9344509390       31.8704284328
 Se        16.9978061535       28.9878894234       31.9113943878
 Se        20.0148366114       31.9494154473       31.9487483094
 Se        23.0109850508       34.9116063535       31.8823581719
 Zn        15.7416295791       18.7137319724       21.4589191380
 Cd        18.5529339489       21.4731124498       21.5439604004
 Zn        13.8114266231       15.7228100908       33.6212300364
 Zn        15.8059134566       18.6401007423       33.4489291130
 Cd        18.5414003807       21.4740853902       33.5219220850
 Cd        21.5602459619       24.5485236592       33.4365559393
 Cd        24.5388524195       27.5300264299       33.4601065605
 Cd        27.4621525961       30.4578768123       33.4453981719
 Cd        30.4596161020       33.5162454635       33.4489383211
 Zn        33.2044318643       36.1976698869       33.2081604384
 Zn        35.5274383868       38.7738731813       32.7024342936
  S        23.0702531581       14.0568097374       28.9234388511
  S        23.3854434258       14.6889204958       40.3724258708
  S        26.1265061447       17.4431895434       40.1817341157
  S        28.9497715477       20.1887207256       40.1317615948
  S        31.7714816554       23.0097800396       40.1306556350
  S        34.4652904204       25.7812973142       40.3928433890
  S        37.0686425540       28.5858256548       40.5757934211
 Se        20.0260442052       28.9646293444       23.0289741002
 Zn        15.8891606763       27.3715687681       13.1449488337
  S        37.8029590106       20.1999395847       25.9923069124
 Cd        21.5519554395       24.4603504312       21.5514290536
 Zn        16.3064252704       16.3097467703       35.8719232166
 Zn        18.7251941754       18.7232789837       36.2067346146
 Cd        21.6279264667       21.6245621940       36.4507455304
 Cd        24.5424195522       24.5537600158       36.5154716941
 Cd        27.4551921226       27.4604355819       36.5190698306
 Cd        30.3675147463       30.3820279007       36.4464640701
 Zn        33.2917408807       33.4526585240       36.1858461802
 Zn        35.6145718711       35.8716515492       35.6138133223
 Zn        18.7943348049       30.3600655759       13.0623537804
 Cl        28.6924263633       42.6792605791       34.4083572535
  S        14.3891037191       34.7885722118       22.7894669121
 Zn        19.3925433516       10.5629360302       32.6139272822
 Zn        33.2846344926       21.5366091415       13.1340358070
 Se        25.9556300093       28.9678345529       28.9360443673
  S        26.0256335576       37.7882911260       31.7794128301
  S        28.8441616056       40.1681232873       31.7361345118
 Cl        38.1891195342       35.0586775795       38.0985952611
  S        26.0215662698       20.0986715971       14.0925174689
  S        28.9131391096       23.0279866974       14.0608903318
 Cd        24.5288742041       27.4471276364       21.5514479621
 Zn        19.2301277191       16.4022766252       38.7797602449
 Zn        21.6158516025       18.7895934901       38.9400058708
 Zn        24.6230440095       21.6949565670       39.0252342261
 Zn        27.4575240478       24.5402109897       39.0866055783
 Zn        30.2890271691       27.4464219196       39.0896562726
 Zn        33.2030836323       30.4536071647       38.8687073693
 Zn        36.2783324603       33.6996472408       38.1047444385
 Zn        21.6258046595       33.1922193550       13.0632900414
  S        31.8680334699       25.9343774059       14.0686120527
 Zn        10.5732982084       21.6375844763       18.7195281412
 Se        28.9721213028       20.0285669993       29.0005118289
 Zn        10.3167008155       16.7256597429       23.8683656177
 Zn        13.1392948193       18.7210190474       24.3674925066
 Zn        24.5531480714       36.1068691370       13.1456002287
 Cd        15.4806752494       21.5548049676       24.4619203989
 Cd        27.4606746725       30.4429966045       21.5487812015
 Se        31.9497333279       23.0481690557       28.9919956964
  S        14.7320362562       14.7299297609       20.1862145550
  S        17.3497090369       17.3429477708       20.1942857762
 Cd        30.4534188313       33.4259567014       21.4788560961
 Zn        21.9543533616       16.2262990114       41.2792666607
 Zn        24.6973977283       18.8795780218       41.4228018335
 Zn        27.5314508827       21.6287240409       41.3468778081
 Zn        30.2942109182       24.3908542362       41.3458456411
 Se        31.9383076979       17.0780226224       23.0157545697
 Se        34.9028244715       20.1230094300       23.0577010132
  S        37.9384947691       23.0780827040       23.0800313237
  S        40.2693895392       26.0182204932       23.1098755791
 Cl        42.6062850701       28.9297021393       22.9836329371
 Zn        32.8609869627       27.1955447051       41.3485200364
 Zn        35.3610945653       29.8684714617       41.1909245118
  S        37.4102388311       23.1462178030       34.6743997113
 Se        20.0479137660       19.9818385357       20.0545248691
 Se        23.0461049633       22.9761671105       20.0538647942
 Zn        35.4386204284       10.8147091883       22.1368718825
 Cl        20.3171776261       14.3200656881       41.5490126102
 Cl        28.7392715461       18.1305008656       43.1063946993
 Cl        32.3003761333       19.6658210765       41.9413733714
 Cl        33.7383471535       23.0935664691       43.2212543092
 Cl        36.9358080974       25.0909709830       42.7551496254
  S        11.8090386382       20.2069408458       28.9060679061
 Cl        10.1154997929       32.3386139851       32.3460238583
  S        31.7454805472       28.9257962794       40.2137417381
  S        23.0976253591       11.8036470151       31.7662532969
  S        40.1544269263       28.8995710893       31.7716696207
 Cl        42.8764147661       31.4120813218       31.4845525735
  S        20.1383923513       37.9262406205       25.9319016299
  S        34.5396887116       37.6692334716       34.5396821806
  S        25.9536234817       23.0741548312       11.7257165188
 Cl        32.3403772758       10.1090785985       32.3346947075
  S        34.8136509666       34.9562207904       31.9683608873
  S        14.7314967590       37.2649022839       31.7427956921
 Zn        13.1425782477       24.3025466648       18.7315469729
 Cd        15.5516380405       27.4421665174       18.6418907277
 Cd        18.5437671648       30.4544143196       18.4841383394
  S        23.1320927798       40.2768502902       25.9914457184
 Cl         8.7623220089       23.0173519359       18.2624623812
 Zn        36.1938372944       10.4679546339       25.1448677521
 Zn        30.5315553829       38.8416380996       21.4748522400
  S        37.3359071465       37.7430610383       31.8280788482
 Cl        19.6996759627       41.8966377908       32.3388636943
 Cl        42.6363400132       25.9903902494       26.0362336476
 Zn        21.5484473597       13.1352665497       33.2904227876
 Zn        21.7078600584       18.7194304587       10.5714639530
 Zn        24.3854978876       21.6369169591       10.6515115098
 Zn        27.3810436538       24.5520938626       10.5689272797
 Zn        30.3523127115       27.5460713467       10.6520647576
 Zn        33.2722395614       30.2836189585       10.5754131170
  S        40.3958146481       25.7816694095       34.4683036658
 Zn        33.2885037206       13.1320683909       21.5471254388
 Cd        18.4746121667       24.4644266660       24.4697007605
  S        26.0269425629       23.1200023878       40.2736562451
 Se        35.0140045032       26.0086651968       28.9942218238
 Se        26.0096987775       25.9628754826       20.0413990523
 Se        28.9541393554       28.9405447873       20.0645978396
 Se        31.9598045412       31.9265670670       20.0139632740
  S        34.6421872413       34.5959750619       20.1921569530
  S        37.2590873058       37.1739956549       20.1984235973
  S        11.5797414273       26.2422459909       34.4502340816
 Zn        33.2712041814       36.1821074334       21.4591713497
 Cd        21.4762181142       27.4457665165       24.5258710977
 Cd        24.5427587096       15.5436247286       33.3717498587
 Zn        21.5555165351       16.0602268759       13.4065471351
 Zn        24.3682778204       18.7216535137       13.1384610570
 Zn        27.3865480924       21.6358564707       12.9087178194
 Zn        30.2948031124       24.5490617461       12.9083314819
 Zn        33.2652407225       27.6238477975       13.1414320045
 Zn        35.9315997516       30.3745935716       13.4071644949
  S        14.5915282904       28.8713923301       34.6462624384
 Zn        36.2960492298       15.8849432754       21.5274247485
  S        11.5004853956       20.3229267904       34.4132076699
  S        14.4108671387       22.7867923417       34.8582906920
 Se        17.1196571484       25.9844576156       34.8246494887
  S        25.9670192097       14.0819346130       31.8673925206
 Cd        24.4667060994       30.4490084086       24.5265957192
 Se        20.0609126055       28.9723758071       34.9192524948
 Se        23.0141003588       31.9222012823       34.9420504709
 Se        25.9999593166       34.8185171381       34.8546836787
 Cd        27.4504260381       33.4509655833       24.4639005476
  S        34.3592410807       31.6984388696       40.4856643322
 Cd        27.5392013127       18.5587104535       33.4324551115
 Zn        21.5544566310       13.4141227836       16.0598074470
 Zn        24.5408381953       15.8016032965       15.7986667958
 Cd        27.4594209015       18.6297844481       15.5551651399
 Cd        30.3847669677       21.6012384927       15.5407874603
 Cd        33.3593746019       24.5396024882       15.5590657370
 Zn        36.1950463625       27.4418504160       15.8069732803
 Zn        38.4478527213       30.3699258931       16.1369687922
  S        17.3567392530       31.8014893091       34.6047761306
  S        14.4474264532       31.8585732420       31.8561413145
 Cd        30.3739576853       36.4323247818       24.3848635961
 Zn        33.2061406902       38.7821830050       24.3913735470
 Zn        35.0353552563       41.2544216717       23.8949439464
  S        29.0261398543       37.6739708637       34.7445740545
 Zn        32.6137267283       19.3893593006       10.5635090806
 Cl         9.3672858413       25.9581248634       25.9995649813
 Zn        15.8152678281       10.3253331517       26.8682966335
 Cl         9.3382558052       25.0304258948       15.0190190541
  S        11.5191126085       28.5096225260       14.8866356808
 Se        28.9834747392       31.9423581255       34.9216158232
 Zn        21.7093434296       10.5735699225       18.7206076620
 Zn        24.3064770115       13.1450361518       18.7222819955
 Cd        27.4533163792       15.5618342736       18.6414689739
 Cd        30.5284411683       18.5462581506       18.5509109445
 Cd        33.4660142202       21.4854637642       18.5448689306
 Cd        36.4253865341       24.5418721374       18.6409579567
 Zn        38.8415364972       27.5392779458       18.7972038868
 Zn        41.4174413012       30.2826365679       18.7186558055
 Cd        30.4560796723       21.5650948625       33.4264690100
  S        14.6629433834       31.8301883408       14.2589627418
  S        17.4662466611       34.5443874114       14.3286393300
 Zn        35.4373596113       22.1340838761       10.8159329199
 Zn        36.1929292518       25.1439473827       10.4817422006
 Zn        36.1742944827       26.8694176247       41.6715487468
 Cl        28.7962247691        9.3795753151       23.1468144441
  S        31.6212990357       40.3755430368       34.3989031883
 Zn        30.4536169862       18.7233219898       13.1337145830
  S        37.9268978883       28.9274956052       28.9213980063
  S        11.4319347278       14.8829197369       28.5657104161
 Zn        10.3214607819       36.1111417847       25.1304585230
 Zn        24.4500117378       10.6592108364       21.6351293187
 Zn        27.3854041643       12.9746316992       21.6397040217
 Cd        30.3849673468       15.5591169941       21.6252267341
 Cd        33.5185674505       18.5473651101       21.5433060167
 Cd        36.4437028114       21.6356392182       21.6311842623
 Zn        39.0255374151       24.6234391875       21.6423983004
 Zn        41.3484761323       27.5313216520       21.6303848929
 Se        28.9848262627       17.0124924264       31.9529441829
 Zn        15.8212854514       41.6699964800       25.1270581518
  S        28.9166332306       14.0787512359       23.0456336027
 Cd        21.5490127532       33.4315074660       18.5469760374
 Zn        35.8707074252       38.4399267150       21.5500440428
  S        14.7029018269       23.3930343236       40.3394634789
  S        17.4402702914       26.1256223820       40.1743786514
  S        20.1808416310       28.9479185619       40.1282931976
  S        22.9641247829       31.7922690533       40.1309502767
 Cd        24.5596404072       36.4394380081       18.6236184664
 Zn        27.6945578974       38.8569995267       18.7182596217
  S        14.3898890057       17.1975469031       29.2056324072
  S        21.7832444565       11.2326025294       16.4922590210
 Zn        27.3839668604       10.5710599899       24.5536788649
 Zn        30.2973106423       12.9119858958       24.5556933805
 Cd        33.3581252777       15.5496957830       24.5463345355
 Cd        36.3645580793       18.6481052910       24.6002675879
 Zn        39.0230756674       21.6415578153       24.6275586957
 Zn        41.4275181568       24.6234848152       24.6256151989
 Zn        32.6157142760       10.5665095495       19.3887205646
  S        31.8030500155       37.7799265752       25.9621211642
 Zn        30.3018232947       41.4244161896       18.7143929552
 Zn        10.4021932352       25.1383170202       36.1896146314
 Zn        21.6302385204       33.2656288222       41.4181807023
  S        25.6273652073       34.4678090169       40.4334849231
  S        28.4866169690       37.1161205853       40.4860264054
 Se        28.9901304679       31.8765113791       17.0678545647
 Cd        33.4395228213       24.4632585535       33.4359773832
  S        20.0550037372       20.0732035855       37.6435730249
  S        14.7222240570       28.5924851468       11.6579945406
  S        17.6001557287       31.6185157309       11.6243804477
  S        20.1893137652       34.6268927870       34.5941960090
 Zn        36.3811089681       24.2164578670       13.5537027347
 Zn        30.3571653104       10.6534890583       27.5431383220
 Zn        33.2670341067       13.1441797827       27.6231873727
 Zn        36.1871208747       15.8053405113       27.4520219010
 Zn        38.8424341019       18.7964884709       27.5394177633
 Zn        41.3473921916       21.6311785881       27.5341678641
 Cl        25.9757659866        9.4017723545       20.4351279556
  S        34.5461267798       40.1525872797       25.8167987922
  S        20.3469656668       34.3948556606       11.6288481312
  S        23.3281343246       37.2548877696       11.6321944253
  S        11.7214573387       28.8624722483       26.0379359936
 Se        16.9928510111       28.9620298242       25.9889174509
  S        14.6134459540       20.1367938144       37.7428094294
  S        17.2235276408       22.9464378890       37.6439678986
  S        20.1886417893       25.9781055259       37.7960857170
  S        23.0790367303       28.9226994495       37.9278308920
  S        25.9990111319       31.8966640949       37.9169663689
 Cl         9.3613129585       20.4654492951       25.9778777347
  S        11.7530845395       23.0789328927       25.9764288819
  S        31.7689684362       11.7964702472       23.0797118095
  S        14.5507237909       17.3707369919       34.8922237525
 Zn        33.2788103833       10.5735588487       30.2860603845
 Zn        35.9291371375       13.4114680682       30.3824061081
 Zn        38.4449618678       16.1333866662       30.3812792241
 Zn        41.4184296998       18.7136675419       30.2845755000
 Zn        38.7701918350       16.4066713154       19.2923201206
 Cl        37.6411503829       41.5483025772       31.6648406770
  S        29.1929509685       34.8541233628       37.5638836866
  S        31.8346265057       37.7417140068       37.3416344160
  S        28.8765258973       25.9940667016       11.7187792083
  S        31.7916513427       28.9621575351       11.8669788789
 Zn        23.7166582562       35.2755858190       41.6851214606
  S        20.1771348619       37.3291713805       14.3298626361
 Cd        36.4367346066       27.4579709901       33.3591649963
  S        11.2302964569       21.7033194312       16.4943396735
  S        14.5787943622       26.0456111406       14.5267493110
  S        17.2596909748       29.0073896678       14.3324340411
  S        20.1038352534       31.8766074189       14.3555065642
  S        22.9507777189       34.7147580115       14.3370927996
 Cl        19.6006329072       32.2971949955       41.9691869206
 Cl        15.0642864380        9.2316492157       25.0896650496
 Zn        15.7198356281       13.3924664793       27.7145841941
 Cd        18.6453549882       15.5525818116       27.4548097292
 Cd        21.5477633110       18.5472355580       27.4663847585
  S        28.9132313988       11.8298140258       20.2151831101
 Cl        22.9768310609       33.7541039928       43.2432357398
  S        25.9058390707       37.4006833620       14.4998561427
  S        30.2913880087       40.7184130977       16.4972828617
  S        11.5367166050       17.5727032318       31.6953242718
  S        23.4589172281       40.4880498727       14.8536063421
 Zn        38.8538969156       30.4491126387       33.2074454226
 Zn        26.7067422328       36.2656306430       41.5105171646
 Cl         9.2529497421       28.2613567827       17.4943868834
  S        17.3147546270       14.5748905229       23.1237479106
 Se        20.0400108491       17.0007232513       23.0208764487
 Cl         8.7711106655       33.6748679580       28.9002831131
  S        34.6592168050       28.8602177080       14.5916912206
 Cl         9.2246957389       15.0632230090       25.0941512950
 Se        20.0222590281       31.9666410975       25.9968595231
  S        17.5461670722       20.3414309708       40.3592423598
 Cl        24.9441418491       37.0224775874       42.6370401501
 Zn        38.7843589407       15.8841193797       24.5551043000
 Zn        41.4277540485       18.8790661393       24.7015864859
 Se        26.0022737746       26.0325720308       31.9503362607
 Zn        41.3666061442       32.6180049385       32.6109288790
  S        11.4878514538       31.6162395220       17.5751819304
  S        14.5918187812       23.0794084375       17.3369119783
 Se        17.1230994154       25.9713670631       17.1951735145
 Se        20.1004904225       28.9116184343       17.1043788236
 Se        23.0214418810       31.8476417068       17.1080930422
 Se        25.9812931785       34.8507303786       17.1466303851
  S        28.8987267892       37.3778970943       17.3306632590
 Cl         8.7795872406       18.2659297537       23.1234653846
  S        31.8099542186       17.3633347531       34.6357801944
  S        20.2230015898       23.1245660569       40.1799923153
  S        23.1041910908       26.0219424024       40.2634522171
  S        25.9532779787       28.8985928173       40.2795712850
  S        37.2446041778       31.7588409762       14.7376604700
 Zn        10.3240478399       15.8066864006       26.8700462090
 Zn        13.3915739651       15.7201144853       27.7115431145
 Cd        15.5655155118       18.6314261381       27.4585516897
 Cd        18.5466777871       21.5372464884       27.4576519005
 Cd        21.4810574478       24.4651552469       27.4613119225
  S        28.8560787140       31.8119516783       40.2153229906
  S        31.6110520767       34.4320326093       40.5177755735
  S        26.1389958343       14.5179324204       14.5437067929
  S        34.8386634841       14.4093081716       22.8084054632
 Cl         8.7667489721       28.8995619070       33.7285878664
  S        29.1961692668       17.1589142497       14.3914279426
 Se        20.0039156435       28.9331538454       28.9539068766
  S        11.2274871827       16.4837449150       21.7833183167
  S        14.4460511009       20.1029001753       20.1289785749
 Se        17.0108519800       22.9564616667       20.1001494583
 Se        20.0419725266       25.9388239994       20.0817180105
 Se        23.0207468662       28.9134573576       20.0648478154
 Se        25.9888118460       31.9189231578       20.0460913815
 Se        22.9836802640       31.9494800579       28.9381037249
 Cl        25.0845194179       15.0566839859        9.2316956618
 Cl        28.3535901023       17.4994687960        9.2123812974
 Cl        31.4084298522       20.5204268272        9.0517385236
 Cl        34.5066965749       23.6616882062        9.2546581132
 Cl        36.9784254781       26.8913658096        9.3384978692