    1336
 i =      257, E =    -14544.3967359474
  S        40.6027712986       38.4138843189       30.2467845880
  S        40.2729266496       37.6992426420       38.1560173669
  S        40.3505831046       42.8714207782       13.8872250084
  S         9.4461742291       40.5140195794       23.4345721470
  S         9.8935241162       39.9238983428       31.3743217620
 Pb        10.0040488373       38.1034904143       22.5064656062
 Pb        10.3982581906       37.3103758146       30.8626687241
  S        39.3439996705       42.3566127057       22.5825246405
  S        40.4187711635       42.3547472666       30.4497628719
  S        36.2534986651       38.6262553429       12.4394689792
  S        36.1976042191       38.0794172425       20.2676882503
 Pb        10.5049013118       45.1512549817       28.4002920507
  S        35.9501956288       38.2188866556       28.7361392897
  S        10.3370449886       38.8720754503       19.9899888258
  S        11.2519474697       38.1690750933       28.4217729073
  S        10.6526791951       42.1531645847       17.6468640103
  S        11.2628801763       42.5689322805       28.1216497255
 Pb        11.0537676235       40.5870732270       25.4074943109
 Pb        10.9741642899       40.1645544913       33.7415846230
  S        29.3565058154       38.5651235586        8.3369936328
 Br        28.9268926801       38.1266329142       16.5259132315
 Br        29.1768325282       38.0553197173       24.7347114320
 Br        28.8966738237       37.9062734549       33.2224070033
 Br        29.3447603862       37.9724782771       41.0970720321
 Br        29.3195891799       42.7694652321        8.1325808883
 Br        28.7759302171       42.9312060976       16.8500209098
 Br        12.3284751858       44.7782865893       20.1052254824
 Br        10.8326544972       45.8293247123       31.1621281393
 Br        28.8910512572       42.8002621827       25.0041325084
 Br        28.9353934795       42.8609483800       33.2990469199
 Br        12.1876710156       38.0986010632       16.3489482709
 Br        12.6770253189       38.3365621323       24.1082426762
 Br        12.7598117459       37.8886033570       33.1034963199
 Br        12.6797079207       43.0931562101       24.5611219724
 Br        12.5101274808       42.3979570181       32.8467359451
 Br        29.6334001168       41.9968054438       41.7153428405
 Pb        11.0757274907       41.5632895433       20.1541095005
 Pb        12.2337156413       40.5785152256       29.6985554043
 Pb        13.0219879837       40.9507732751       38.2461269743
  S        29.2219476261       53.4873376419       17.0552913050
 Br        29.1091957075       53.4611864853       25.1759371934
 Br        30.0129645683       54.3212769221       32.9828835064
 Pb        12.7863817289       48.6483940236       28.6987162009
  S        36.0950324540       37.9494240741       36.7837109520
  S        36.8649757967       38.5088012647       45.4334184128
  S        35.2815587834       42.2338103477       12.2365651242
  S        35.8365456420       42.2833317485       20.4959808271
 Pb        28.8731339436       40.4117716479       13.4593900354
 Pb        29.0160475346       40.3020683472       21.7697703428
  S        14.5154996347       45.4286809796       15.7671834431
  S        13.0009692913       45.9671595824       28.0090258342
  S        13.7863345224       45.8033288510       33.7697272281
  S        13.9935696077       49.6782611370       26.7660028290
 Pb        29.0684733779       40.2584414092       30.1865619232
  S        13.7147064751       40.6769616406       19.1468585126
  S        14.0313146296       40.2250889101       27.2636923262
  S        13.6673283411       40.3519449945       35.7454187025
 Pb        29.2145146066       40.2493092108       38.4011076187
 Pb        30.3850669553       38.9595986380       47.4394599263
 Pb        29.5066584388       55.3891986997       22.8258352861
 Pb        12.7376213928       38.0403205113       19.1597742583
 Pb        13.9651214844       37.5037139276       27.8660014201
 Pb        14.1402962939       37.7915180948       36.2026112199
 Pb        13.0768506955       42.9138070293       17.3738263993
 Pb        13.8470583985       43.1719480900       27.3272079628
 Pb        14.2145039674       43.7130020482       35.2248666508
 Pb        30.0148507773       56.1015143138       29.6810266632
  S        35.8580251027       42.2513988539       28.8719346796
  S        36.0809349903       42.0327700431       36.9482090814
  S        35.7019108491       41.9707948921       45.1825481808
  S        35.8559553740       53.6394022323       20.1662667437
  S        36.3910128203       53.7208980139       27.5517473565
  S        39.9575907038       42.0247172667       38.6304069812
 Pb        44.1466751560       38.8085148365       15.7138869564
 Pb        14.1551164135       44.8548608570       22.2552793189
 Pb        13.7979741291       45.3382676581       30.9536008823
 Pb        27.9761044672       47.7708264053       11.2299809457
 Pb        29.8818039387       48.0004696407       20.5458964522
 Pb        29.9543389204       47.8908913532       28.4949123704
 Pb        29.8706700028       48.0347182617       36.6344613802
  S        14.4827822666       47.6031100314       23.1347504353
  S        14.6660401025       47.9999603829       31.0572022448
 Pb        42.5484901340       37.7641559768       22.9848509286
 Pb        43.2652280663       37.7657621853       31.0471193910
 Pb        35.8611699334       40.4731794175       10.1640361138
 Pb        36.2146240669       40.3332655687       18.0692494218
  S        15.4572047742       38.0856553061       13.7085046711
  S        15.6924205613       38.2905350043       21.9731933615
  S        15.4220415890       38.2805342098       30.2350148569
  S        14.1098178960       38.5882050328       38.9124581892
  S        14.4621474775       41.8243319450       14.5462540258
  S        15.7129617910       42.3418436204       22.1227781970
  S        15.3371354491       42.2639139633       30.2073838251
  S        15.3985884365       42.1045637927       39.0773390231
 Pb        35.6241301957       40.1984928053       26.1996840872
 Pb        36.1685942147       40.0812104603       34.5211944230
 Pb        14.8524546047       39.4885321740       15.9958835320
 Pb        15.5647127974       40.2695577378       24.0065065208
 Pb        15.3496397086       40.3176583999       32.1942891929
 Pb        15.4748985740       39.6459847990       41.0084622944
 Pb        36.9550245462       40.2559582099       43.3388494754
 Pb        37.1646283489       55.5141147547       25.6936289316
 Pb        40.4824124006       40.5982136051       15.8554666922
 Pb        39.9699574941       40.3007868795       24.7407268529
 Pb        15.8219703328       47.1438997041       17.0787726950
 Pb        15.3931104947       47.6775654870       25.6994494758
 Pb        15.7408537905       47.6869362825       33.6459691522
 Pb        40.3955966476       40.2680590841       32.3801177873
 Pb        40.1831254244       39.2826667433       40.9415381165
 Pb        36.6504862995       48.4143569271       16.6069244940
  S        27.7187380647       45.5918890344        9.7965320852
  S        29.8051591669       46.1247593559       18.2505152374
  S        29.9509392567       45.9945340317       26.3437364142
  S        30.0180779920       46.0383619387       34.6660749102
 Br        16.1917383111       45.8143832257       19.9977054434
 Br        16.5759094643       45.3220621357       28.8866990726
 Br        16.2963316214       45.4428648771       36.8924234304
  S        16.5040371569       50.5738893739       20.9539795561
 Br        16.5704593180       50.9381886386       29.1658102019
  S        29.2668668558       45.5331403150       42.9020896499
  S        30.0591206427       50.2272798274       18.3343994218
  S        30.0251181337       50.1138517802       26.3794455196
  S        29.8767859363       50.3448971095       34.5530668512
 Pb        36.7202359158       47.8692605221       24.8890316988
 Br        16.8413866591       37.7671802527       18.0692099170
 Br        16.8577660688       37.8995527148       26.0911311761
 Br        16.7214323725       37.9655332549       34.5096250125
 Br        16.3317328680       37.0039170649       42.0481278852
 Br        16.9643824476       42.7744892643       17.8703626734
 Br        16.9258638194       42.5175240470       26.0041935579
 Br        16.6580002519       42.6747918045       34.0640668597
 Pb        36.9597806242       47.9306593534       33.3972160211
 Pb        37.4924952355       49.0301305224       41.1603587554
 Pb        42.8491628166       37.3479435125       39.0336578107
 Pb        16.4597960213       40.4942947615       12.9956569575
 Pb        16.1765888914       40.4960928037       20.1469447970
 Pb        16.4426095782       40.3386207273       28.5370128580
 Pb        16.7573906152       40.2276019549       37.5525437835
 Pb        42.7954152923       43.6858538602       14.4518038072
  S        30.5441240342       40.7390457911       11.0086258736
  S        30.4615443247       40.3577106160       19.3220906605
  S        30.4635411293       40.2829749875       27.6737337897
 Pb        16.9330141564       47.9274677851       22.1886069350
 Pb        17.2072703664       48.0320801631       30.1438829991
 Pb        18.1214009468       48.9562984975       38.2562686086
  S        30.5038717983       40.2650482129       35.8731420229
  S        31.3981623685       40.5039679093       45.4330215799
  S        30.2542762554       56.7993787643       27.1557809327
 Pb        44.1123239163       44.2712113872       23.2016432207
 Pb        43.0333047370       43.4449195832       31.5745041307
 Pb        40.0950846608       48.4212789532       17.4172233679
 Pb        41.3913296152       48.2889654829       26.4353703504
 Pb        40.9666826773       48.0100598873       34.2422977844
  S        18.2327182555       46.1537708244       16.2725559476
  S        17.9125283162       45.8515701585       24.3801404905
  S        17.7869032755       46.1103973061       32.6143520457
  S        18.5882851071       47.1787185204       40.1134589785
  S        17.4913246246       49.6977433104       24.5931127443
  S        17.9303506861       49.8658178055       32.4912315985
 Pb        42.6195322056       42.5767388140       39.1204769345
 Pb        44.6279760009       47.8933667416       24.9003259304
  S        48.0845270380       40.9577293636       28.7030027039
 Pb        30.2104129137       37.5705976099       10.7456024422
  S        17.9173535418       40.1793042539       15.3827600164
  S        18.4072829175       40.1650410776       23.5893915092
  S        18.1277417542       40.2465194133       31.7222027843
  S        17.9619342593       39.6913504855       40.0117422678
 Pb        30.5326586048       37.2465678100       19.8818556365
 Pb        30.5117420064       37.3316856527       28.2291065693
 Pb        30.7066643280       37.2233061824       36.4824471002
 Pb        31.1037659039       37.8554113726       44.2142318476
 Pb        29.6092131218       43.7836715739       10.9550443539
 Pb        30.4202863432       43.1353008213       19.8390011103
 Pb        17.9364704794       37.5044882855       14.6806049038
 Pb        18.2133033755       37.5049642434       22.7389353431
 Pb        18.0273150944       37.4224951070       30.9059449305
 Pb        18.5863141397       37.0607772355       39.6139875435
 Pb        16.4093871387       43.6869392666       15.0286769828
 Pb        18.2331886387       43.0263080805       22.9908634468
 Pb        17.9159226016       43.2064524976       30.8725952635
 Pb        17.6689517116       43.7329520601       38.8886887333
 Pb        17.5185160574       51.7980763955       23.0205705110
 Pb        18.5985323194       52.4408045262       30.5706260084
 Pb        30.5797257313       43.0779848862       28.1935225131
 Pb        30.7654742785       42.9919151376       36.3714271520
 Pb        30.2516477958       42.7430791387       44.5652918095
 Pb        30.4329464088       52.8229651497       19.4618060163
 Pb        30.5852531090       52.3212426232       28.2243687124
 Pb        30.5452431493       52.7169077032       35.6867594647
 Br        36.3866479503       45.7719190156       13.5752859334
 Br        36.9213622352       45.4975703402       22.0146674260
 Br        36.9267352022       45.6814700226       30.2804007408
 Pb        18.8853102778       44.9180773233       18.5781602788
 Pb        18.8268057060       44.9741228871       26.7499144945
 Pb        18.9079769097       45.0557626470       34.9199957880
 Pb        18.6259799387       50.8608480467       19.3618881659
 Pb        18.8360941067       50.7409605336       26.9296454981
 Pb        18.7901140469       50.6205074409       34.8209120039
 Br        37.3347000029       45.1598295910       38.2693235039
 Br        36.7836609783       50.3345799964       22.2544414715
 Br        37.2689883203       50.7550570099       29.8896367460
 Br        36.8567912609       50.2314863249       38.5420790288
 Pb        46.0240853995       37.6569635112       19.7388857948
  S        19.0428075664       48.2631583080       19.1885894075
  S        18.9762004302       47.9069070882       27.4482529482
  S        18.9276239279       47.8754381386       35.7678747945
 Pb        47.5874083466       38.3353360018       28.0358416420
 Pb        43.8126046958       36.1503644485       35.0273361283
 Pb        47.3084523921       41.9600960663       26.3174114543
 Br        41.8564042105       44.3162989488       20.7752707368
 Pb        31.0327440595       45.4291275350       15.8492982411
 Pb        31.3739337561       45.1657555123       23.9635032850
  S        19.1942262648       38.6232460420       12.4313467928
  S        19.6545606855       38.2387950219       20.4339953720
  S        19.5091815848       38.2308732796       28.7324806450
  S        19.5013437188       38.1840304782       37.1507623965
  S        19.2130974777       36.9357805540       44.8620962859
  S        19.1145454459       42.7753869193       12.8096034202
  S        19.6119957986       42.2830416906       20.5472952697
  S        19.5091070715       42.3070639762       28.6936627060
  S        18.8115858019       42.1215761581       37.0199559518
  S        19.2287154219       53.4717440682       28.2232942141
 Pb        31.4342871692       44.9945279575       32.3736699698
 Pb        30.7211961412       45.1117853792       40.5959858191
 Pb        30.9311124889       51.5245710342       15.9956694471
 Pb        19.5311610849       40.3036366332       18.4373948073
 Pb        19.4501769255       40.1773517934       26.2842027281
 Pb        19.2251123999       40.2388852773       34.2906260686
 Pb        18.2997648641       39.0236945744       43.7895417569
 Pb        31.4993331369       51.0353668480       23.9600424661
 Pb        31.6974556003       50.7846913243       32.1527049273
 Pb        31.5449604630       50.4047959875       40.5865712886
 Br        40.9482756748       45.7796523978       28.9338958293
 Pb        20.2064369780       48.0760470714       16.6116317159
 Pb        19.8782653084       47.7697592638       24.7339062814
 Pb        19.9691267953       47.9148218954       32.6654034137
 Pb        20.5696440264       48.1021042985       41.4412482505
 Br        41.4710991860       45.5136767555       37.7597556264
 Br        37.8280902654       38.5759849939       16.2615473935
 Br        37.3127520073       38.1712413674       24.9231842740
 Br        37.3753931750       37.9402511778       32.8322832358
 Br        37.5578259885       37.3895993290       41.3964989162
  S        31.0717861316       48.1319538259       15.3125064237
  S        31.3507237387       48.0321471800       23.5203764487
  S        31.5571708126       48.1080100630       31.9079305939
  S        31.8220957152       47.6690155483       40.6245839109
 Br        37.1568022828       42.8810627015       16.7163235167
 Br        20.9673121164       50.8481994317       13.7898697061
 Br        20.6733098385       45.6724765593       21.7581977495
 Br        20.6271622501       45.6195378322       30.2617663621
 Br        20.7380961025       45.1767879121       37.9411380888
 Br        20.3836022830       51.1688164836       21.7845537493
 Br        20.7329258385       50.4495816795       30.1764256322
  S        20.4527739207       50.4843552529       38.0428438800
 Br        36.9112933643       42.7780629695       25.2278754294
 Br        37.2634657898       42.5390435231       33.0083450630
 Br        37.2800761205       43.3246885387       41.7298062263
 Br        39.3339716320       53.7481794910       24.9902427846
  S        37.4142110235       52.9216942925       33.2025867899
 Br        40.8154735450       50.1910124621       20.7395837886
 Br        41.1818693791       50.3758863551       28.7747123464
 Br        21.0323939888       38.1504372932       16.5042986482
 Br        20.9341184669       37.7164087213       25.0650432334
 Br        20.8086768845       37.9731097858       33.2336303195
 Br        21.2116366811       37.9849819153       41.1020874223
 Br        20.8016423949       42.9995939466       16.7933735555
 Br        20.9695177576       42.5681724836       24.9858650332
 Br        20.6713031470       42.6532308524       33.2481291037
 Br        20.3364294341       42.7688382931       40.9572130533
 Br        21.2712622771       53.6079563165       24.8334894311
 Br        19.8397295436       53.6513965432       34.3183610279
  S        31.9893129345       38.1488007495       14.1810480490
  S        32.0293013469       38.2829775652       22.2045954883
  S        31.8652443376       38.1744729024       30.5895672803
  S        32.2402688285       37.9986507561       38.8544541663
 Pb        20.2156974945       40.6568185712       13.9750452428
 Pb        20.9280716766       40.2658236917       21.9168865122
 Pb        20.7308187777       40.3259335059       30.0893241319
 Pb        20.6109392897       40.4941506565       38.2851133401
  S        32.1903232247       37.2837880376       46.5976952253
  S        31.6013117325       42.1537598254       14.3128583005
  S        31.8447372319       42.3173172752       22.1825171198
  S        31.8470120331       42.2688340961       30.5698387308
  S        32.1247210920       42.0580190946       38.6564609331
  S        31.8735705271       54.0687420526       22.4941684318
 Pb        22.5517824178       48.5900708910       12.7129233062
 Pb        21.5556629374       48.0902676457       20.2348960201
 Pb        21.5985718963       47.9756842524       28.1957771850
 Pb        21.5647172658       48.0906216349       36.5298104818
  S        32.2503219668       54.3894932573       29.9281308425
 Pb        44.4661914791       45.0153536967       19.6229747192
 Pb        43.5222644578       45.0704193976       27.3070111029
 Pb        37.1866222027       40.8370737698       13.7736701937
 Pb        37.3246918151       40.3434006827       21.8517392380
 Pb        31.3177058337       40.4717331635        8.4029563193
 Pb        31.9265219475       40.1131110247       16.2711442299
 Pb        31.9241522613       40.2501698732       24.3003433074
 Pb        31.9321278439       40.1249525975       32.7089146673
 Pb        32.3467250967       40.0640204908       40.7487547925
 Pb        32.7985121125       55.5641867672       24.5444750799
 Pb        33.1218712170       55.8089344032       32.0841874566
  S        21.9144562239       46.4211789519       18.0079013877
  S        21.7050931894       45.8953309757       26.2511398863
  S        21.7584821536       45.9137552149       34.3739290516
  S        21.6934767038       46.0003691642       42.6718927592
  S        21.9572810188       50.5064890833       18.1401605603
  S        21.6245089226       50.1640471744       26.3621383315
  S        21.6118529181       50.1978206209       34.4019468980
 Pb        37.2277689242       40.2517206042       30.1391715375
 Pb        37.5968631224       40.0457994098       38.1871256173
 Pb        43.3980820447       44.4259408640       35.4509584880
  S        21.8826789336       40.6245337788       10.9273806176
  S        22.2846917877       40.3206794914       19.3351918553
  S        22.2558384526       40.2296467827       27.6246692002
  S        22.1422529614       40.3323033812       35.9219357332
  S        20.7189228057       40.2205008335       44.4205943492
  S        22.5573240013       55.9607123486       27.5644036827
  S        44.9695828071       46.3322669877       21.8268635691
 Br        45.1560380922       44.6460687888       29.8030870975
 Br        41.9391886194       38.2220435734       17.4418544626
 Pb        37.8803898333       48.3207113623       20.2921602342
 Pb        32.6825059410       48.4213611403       17.7178132859
 Pb        32.7824354419       48.0299630349       26.0335406580
 Pb        33.0106326193       48.0906479390       34.4341848178
 Pb        33.7649060508       47.9522698017       42.5584542036
 Pb        21.5573658098       37.9511240849       11.5160165636
 Pb        22.2424269784       37.3698799326       19.7949665719
 Pb        22.2217560484       37.4028299860       28.0954430311
 Pb        22.1003702077       37.5631962455       36.2392927342
 Pb        21.6058279044       37.5466939945       44.0973719081
 Pb        21.3106504677       43.2392649440       11.6026600603
 Pb        22.2422041493       43.1078413326       19.8788533715
 Pb        22.1386106255       43.1308383770       27.9174783323
 Pb        22.5089368514       43.6657096766       35.9538801397
 Pb        21.0774675529       42.7073725496       43.7353188383
 Pb        22.7633118488       52.5252822909       19.8687154445
 Pb        21.8333896988       53.2000142217       27.7764516351
 Pb        21.7606370885       52.3289573201       36.0219958064
 Pb        38.1066159123       47.9312197871       28.4127305879
 Pb        38.2253341049       47.9165992413       36.9458082736
 Br        41.1937298011       37.8478658147       26.2065143415
 Br        41.3770159761       37.1686028844       33.7608159349
 Br        41.5886183348       36.8736791160       41.8020805232
 Br        41.9119574478       45.2202313516       16.6652670088
 Br        40.9544828139       42.9671541771       26.1839972538
 Br        41.1556160912       42.8968168037       34.2621943763
  S        47.6368084477       39.0976099317       21.4077753897
  S        43.8868799811       47.8173970236       27.4611741974
 Pb        23.0355209941       44.7665495111       15.8211544604
 Pb        22.9644248393       45.1304108434       23.8921572959
 Pb        22.9976829806       45.1393985724       31.9475966001
 Pb        22.6921354509       44.8200608578       40.3606606434
 Pb        23.2501824000       51.2983741158       15.9645147626
 Pb        23.0341695545       50.7788557979       24.1708614850
 Pb        23.3898542030       50.7990210908       31.9702372217
 Pb        22.4935533569       50.4918394457       39.9249353296
  S        46.9497929348       39.2464798616       25.4435948242
 Pb        41.2142839596       41.1225663846       12.0068684132
  S        38.2037177907       46.2531884262       18.0665190203
 Br        32.6812997545       45.2929630659       12.0711535590
 Br        32.7840054317       45.6326983602       20.8633969523
 Br        32.8525349319       45.6113537172       29.2238273013
  S        23.5496872681       48.6924392981       15.1970640940
  S        23.1706091858       48.0239605446       23.4784251094
  S        23.2954908407       47.9899515136       31.6473251323
  S        22.7367892869       47.9030911659       39.4612342700
 Br        33.1404088650       45.4789778989       37.5770838719
 Br        32.7973209857       50.5667041426       20.9417546059
 Br        32.8944474068       50.5099201017       29.2001405103
 Br        32.2234340330       50.7499351990       37.7886343067
  S        38.0369742668       45.9340748395       26.3931002008
  S        38.2974581140       45.8553515461       34.6352823991
  S        38.0397832438       50.1765514034       18.1238799379
  S        38.1250291539       50.1217628856       26.2110761477
  S        23.6289603287       38.4438585831       13.5822778552
  S        23.7073096106       38.1197544875       22.1693695395
  S        23.6436891591       38.2502809690       30.4802988678
  S        23.8721725495       38.2726103490       38.5943070515
  S        23.6551211822       42.7104099772       13.7449985983
  S        23.6436324680       42.2983562904       22.2148149076
  S        23.6256310279       42.3249538051       30.4351387788
  S        23.8223513554       42.2844578949       38.7035373425
  S        24.0506165325       54.0282787327       22.2045179683
  S        24.2462743591       53.7350187137       30.4718896019
  S        38.5042641884       49.8522473210       34.7666405276
 Pb        41.1578574777       40.8700704087       21.2389823515
 Pb        41.3023360541       40.4674333789       28.6140620856
 Br        33.4956036959       38.6133195478        9.5995197093
 Pb        23.5364488956       40.4071574634       15.5284524413
 Pb        23.7777461710       40.0917490366       24.4050374215
 Pb        23.6979609576       40.3013250478       32.4602838379
 Pb        23.7629766968       40.2315672874       40.5970043208
 Pb        23.6580401520       55.4461770943       24.6530352319
 Pb        23.9424797689       55.3798241635       32.5697060687
 Br        33.2115775366       37.9138504537       18.2278574854
 Br        33.1127558199       38.0034322543       26.1109983428
 Br        33.1034574665       37.8463625777       34.4911658054
 Br        33.8609481664       38.4697216802       43.0778075503
 Br        34.3734117077       42.7897044204        8.7119279399
 Br        33.0856929359       42.7435875203       17.9618460781
 Pb        24.4124229782       47.9685937313       17.9615853758
 Pb        24.4451823063       47.8629679639       26.0540121417
 Pb        24.5671221213       47.8928672280       34.1335673377
 Pb        24.0622320537       47.5550601104       42.8807433473
 Br        33.0364762902       42.6790854181       26.1775972901
 Br        33.0170726164       42.7608277669       34.3191851612
 Br        33.0441765160       43.6091238691       42.3385799421
 Br        32.7975585200       53.1934564848       17.7151998556
 Br        32.8595064204       53.1757117195       26.2515840118
 Br        33.5683835721       53.6505577796       33.9589892592
 Pb        41.4339020191       39.9814365243       37.0648219074
  S        38.7405778742       40.6419534043       11.0662917920
  S        38.8657593679       40.5467665535       19.3717308064
  S        38.7488694912       40.4200016233       27.6894051772
 Pb        32.8096227418       40.4159687602       12.5770471973
 Pb        33.0099271947       40.3662666095       20.5055053800
 Pb        33.1873572968       40.2316499770       29.1343034141
 Br        21.2419390659       46.1668289144       13.6056305800
 Br        24.6261238503       45.8319914322       20.6162932990
 Br        24.7569391947       45.5529821200       28.9880783550
 Br        24.6761271477       45.5149483879       37.1033816301
 Br        24.6023540543       50.5481314783       20.9555996041
 Br        24.6206790178       50.3060925308       29.0185423753
 Br        24.4668392467       51.2180506449       37.6469901405
 Pb        33.5924072036       39.9991565197       37.3122303651
 Pb        34.2948625862       39.4853236429       45.8556593997
 Pb        34.4045989502       55.4308458788       28.5163789612
  S        38.7846701567       40.0850280593       35.5720310730
  S        39.7366549970       39.8736582301       43.6207320679
  S        45.8391016116       39.4887105523       17.6893152077
 Br        45.5745188550       36.1178526806       23.2920295843
 Br        25.0135488354       38.8295347884        8.9790540813
 Br        24.9562210162       38.2602026952       17.7813718799
 Br        25.0032085483       38.0211516712       26.2671745649
 Br        24.9483775748       37.9742063662       34.5060192188
 Br        24.9593869951       39.2135305106       44.1482661841
 Br        24.5244585225       43.0671046571        9.5412049457
 Br        24.8014878324       42.8613469871       17.6904374916
 Br        24.9285891296       42.5563404147       26.1566688674
 Br        24.9206630961       42.7395046763       34.3366559944
 Br        23.8056421800       42.8542655712       42.7215531672
 Br        24.7475284601       53.9156951600       18.2241266986
 Br        25.1036794083       53.4221568244       26.3502813295
 Br        24.2599925072       53.2062490081       34.3996233087
 Br        45.6868955528       37.2414434870       33.1814154986
  S        43.9427035771       38.9513656881       20.8585980076
 Pb        33.6254514668       47.9521584275       14.3248451339
 Pb        34.0251705507       48.0635176558       22.2476547496
 Pb        24.4065406866       40.7312434836       11.6401353656
 Pb        24.9111722822       40.2428932823       20.7670659132
 Pb        24.7890778475       40.2695598907       28.8521891160
 Pb        24.7210085193       40.3055253147       36.8685513313
 Pb        26.5683731649       40.0107980534       46.3532507850
 Pb        25.8193393126       55.7792257325       21.1444598290
 Pb        24.8366132829       55.6368792298       28.5549317704
 Pb        34.1221605865       47.8737628210       30.7826291937
 Pb        34.2919061828       48.2583255408       38.9950258531
 Pb        41.9644586886       47.8508070885       22.3469288794
 Pb        42.2778230554       48.1343496467       30.9104920130
 Pb        38.9022638950       38.1018442947       11.8693097234