    1336
 i =      272, E =    -13709.2795001603
  S        41.7872060610       39.4555438631       31.3952354107
  S        41.4863394576       39.0849445342       39.7903342309
  S        41.6762029105       44.0691610611       14.7883693311
  S        10.6213278698       41.8011410097       24.4138475331
  S        11.1358893057       41.0488161612       32.6257607336
 Pb        11.0511669536       39.3867728138       23.4005665950
 Pb        11.6271040055       38.4348088766       32.2288951936
  S        40.8605965682       43.6106050747       23.6552776115
  S        41.4806397532       43.5878746562       31.6368489705
  S        37.4336030868       39.9609894750       13.2771044184
  S        37.7331288271       39.3503378463       21.3099051558
 Pb        11.7395758701       46.1732701550       29.4971172074
  S        37.3391749986       39.4049022662       29.8761690085
  S        11.4119286770       40.1838576067       20.8926421324
  S        12.4235350551       39.1758930083       29.7150744950
  S        11.9189288496       43.4530085815       18.6860147902
  S        12.4751020371       43.5895683702       29.1593743650
 Pb        12.2592390203       41.7034954356       26.3569931076
 Pb        12.2014079792       41.3412186357       34.9997459728
  S        30.6539084520       39.8230106300        9.2531546379
 Br        30.2841786837       39.0443120727       17.5087806246
 Br        30.5020995782       39.0617539004       25.8069830313
 Br        30.1291119744       38.9502808450       34.4439313104
 Br        30.7551207235       39.3909410686       42.7400588073
 Br        30.5696642969       44.0414505352        9.1533225499
 Br        30.1707066713       43.8934477998       17.8508720301
 Br        13.7175886070       45.9499207728       21.1302755592
 Br        12.0891843096       46.7926826065       32.2686162521
 Br        30.2324562391       43.7733101542       26.1764566568
 Br        30.1708571119       43.9185458586       34.4159836981
 Br        13.4440463573       39.4276416136       17.2443766888
 Br        13.8126673867       39.5886891756       24.7475320032
 Br        13.9898458489       39.0858928702       34.5383317126
 Br        13.9978354384       44.1031774173       25.5967738280
 Br        13.8555646934       43.4792592085       34.0427449449
 Br        31.2161102074       43.2380783235       43.5447435116
 Pb        12.3004766100       42.8145383595       21.1867209286
 Pb        13.4319943219       41.6546733711       30.8190349566
 Pb        14.3767793081       42.2953622158       39.7592392659
  S        30.5043397037       54.4893448438       18.0814914993
 Br        30.3691315382       54.5222191686       26.1907721749
 Br        31.1861461156       55.5077675888       33.9354143810
 Pb        14.0621506878       49.6526186280       29.7052551171
  S        37.5494054318       38.8731015446       37.9299829791
  S        35.8658730898       41.1512132687       44.9945293589
  S        36.7110386605       43.5988593349       13.1107404961
  S        37.2851633537       43.4363532354       21.6004249441
 Pb        30.2508133701       41.4369784678       14.4073291609
 Pb        30.4121174718       41.2323612297       22.7499044008
  S        15.8702848066       46.4451106874       16.7700214716
  S        14.2445094487       46.9530312794       29.1021175296
  S        15.0678141621       46.9119436985       34.8440191445
  S        15.2549383174       50.6593521725       27.7493742930
 Pb        30.4085610686       41.2621200822       31.3493560240
  S        14.9295374263       41.8145933372       20.2227543414
  S        15.1893979447       41.2065206802       28.4114329313
  S        14.7619636068       41.6645344051       37.2229483720
 Pb        30.5605811112       41.4418888387       39.5078447340
 Pb        32.1269371140       40.3578664743       48.9868540740
 Pb        30.7492478668       56.4418407184       23.8290800088
 Pb        13.7909808689       39.2660241891       20.0912332290
 Pb        15.1346599591       38.4888042851       29.1466431929
 Pb        15.3406591653       39.1413016546       37.7108543928
 Pb        14.3891835923       44.0134425884       18.4054644721
 Pb        15.0792957537       44.1614532842       28.3971823127
 Pb        15.5047326576       44.8664979518       36.3691516347
 Pb        31.2312874065       57.2349514104       30.6505166601
  S        37.1962112220       43.4029307392       30.0359538497
  S        37.3482880902       43.1523204256       38.0245677610
  S        37.2353669949       44.2839523638       46.5089313049
  S        37.1127872326       54.7454124436       21.2276314942
  S        37.6165771604       54.8731528551       28.6342634761
  S        41.0229300401       43.3046835908       39.9203553033
 Pb        45.5160088227       39.8887913038       17.0133680635
 Pb        15.5206065002       45.9149511625       23.2922049985
 Pb        15.0643784945       46.3751414358       32.0322238008
 Pb        29.2600469716       48.8952198651       12.2956549542
 Pb        31.2003199098       48.9924388136       21.5765614656
 Pb        31.2246675430       48.9501260002       29.5613464601
 Pb        31.1326500182       49.1312409481       37.6791623611
  S        15.8191115688       48.6440639554       24.1065300595
  S        15.9365479326       49.0488585078       32.0758629890
 Pb        44.5410319162       39.2387395969       23.7311757084
 Pb        44.4841788342       38.8820407575       32.2205794034
 Pb        37.2371768978       41.8697742045       10.9953730619
 Pb        37.5648920106       41.4985390177       19.1118343059
  S        16.8599394605       39.0637982467       14.8113597674
  S        16.9824223702       39.3106718574       22.9451997935
  S        16.6405068597       39.3921752616       31.4186515402
  S        15.5424646628       39.9550378282       40.4012536002
  S        15.9037027260       42.7861019375       15.5144262334
  S        17.0665344217       43.3454395264       23.1125762998
  S        16.5740619687       43.3407661341       31.3216340688
  S        16.8450712787       43.4624357752       40.3321204355
 Pb        36.9972529140       41.6084042979       27.2628136472
 Pb        37.5421138626       41.1164320251       35.9059623586
 Pb        16.2390278761       40.5244349739       17.0427124687
 Pb        16.8493917820       41.3018452507       24.9823438390
 Pb        16.5932721091       41.4319239715       33.3335584588
 Pb        17.0349305883       41.2376252874       42.3283424805
 Pb        37.7921504236       42.9335128620       44.1012036788
 Pb        38.3983175935       56.6629645004       26.7700363662
 Pb        41.7832496727       41.9972293920       16.9091322022
 Pb        41.6500064153       41.6976835754       25.7179947870
 Pb        17.1925789042       48.1135344825       18.1322526620
 Pb        16.7386315100       48.7285534721       26.6764686082
 Pb        17.0070471894       48.7908398074       34.6705219583
 Pb        41.4928853236       41.3778283435       33.5703421109
 Pb        41.1377481475       40.4262900615       42.4948897929
 Pb        38.0385746962       49.5336341976       17.6924836190
  S        28.9978167820       46.7255220346       10.8629205233
  S        31.1378233349       47.1097963044       19.3222428796
  S        31.2400259110       47.0634605506       27.3975239365
  S        31.2495195138       47.1701292996       35.6837381557
 Br        17.5705803694       46.7530623577       21.0430722275
 Br        17.8372251893       46.3476190733       29.9113900020
 Br        17.6503300950       46.6405980526       37.9756967439
  S        17.8331267466       51.5555897856       21.9304156038
 Br        17.8394475733       51.9574130036       30.1294706427
  S        30.7246377528       46.8785356467       43.9483391343
  S        31.3639258377       51.2353043063       19.3676934489
  S        31.3045622441       51.2030654762       27.4247553690
  S        31.0937226795       51.4901993773       35.5758341481
 Pb        38.0058861428       49.0512553273       26.0165645343
 Br        18.2929190870       38.6818109816       19.0726018451
 Br        18.0318400391       38.9838519830       27.2395251629
 Br        17.8820217946       39.2281822734       35.8198220645
 Br        18.2188225152       38.8592587110       43.9349828762
 Br        18.2862204394       43.7384717338       18.8378201732
 Br        18.1678596665       43.4825146004       27.0460020364
 Br        17.9531942553       43.7718622435       35.2346757075
 Pb        38.1546215869       49.1589331270       34.5588885711
 Pb        38.6656848310       50.4416873014       42.2145315005
 Pb        44.1124186433       38.7140518664       40.6245320190
 Pb        17.9141958161       41.4465155350       14.0453805148
 Pb        17.4354846811       41.5365199920       21.1140917573
 Pb        17.6274117525       41.3616379441       29.6451996246
 Pb        18.1023363110       41.5434571068       38.7800870483
 Pb        44.1385021705       44.7768599863       15.4884313079
  S        31.8918271895       41.9704287245       11.9337765304
  S        31.9248123357       41.3438746090       20.3560459308
  S        31.8288500233       41.2283386723       28.8792773016
 Pb        18.2856938253       48.9370011269       23.1687855811
 Pb        18.4701950045       49.0613329963       31.1576954051
 Pb        19.3850690558       50.0521957569       39.2710977263
  S        31.7162419569       41.6924173403       36.9728496343
  S        33.0670478354       42.6162797206       47.3444444551
  S        31.4898804252       57.8844810298       28.1100416135
 Pb        45.4575439558       45.7140727694       24.5161293053
 Pb        44.2780633854       44.8225205043       32.6522784532
 Pb        41.4521498471       49.5470654550       18.6402739580
 Pb        42.6792601684       49.5953592403       27.7009500429
 Pb        42.0834061696       49.1762734100       35.5065227186
  S        19.5906876947       47.1006356620       17.3218004962
  S        19.2121286054       46.8283552865       25.3693805087
  S        19.0523419887       47.1924484570       33.6606927490
  S        19.8895134204       48.3414549125       41.1808119389
  S        18.8123332576       50.6999690215       25.5849154673
  S        19.2101785510       50.9440948094       33.4654773122
 Pb        43.6894223773       44.0033816222       40.6679490841
 Pb        45.9254663960       49.2704571599       26.2110284440
  S        49.5656664531       41.8814333930       30.5798865569
 Pb        31.7195714758       38.8381600388       11.6187035860
  S        19.3746983067       41.0935676204       16.4707449932
  S        19.6833289052       41.1024977213       24.6333618061
  S        19.3919002018       41.3252837197       32.8832413928
  S        19.3885551992       41.0160508878       41.1396242314
 Pb        32.0436347063       38.1550748851       20.8833124434
 Pb        31.8754371030       38.1878990620       29.6335114714
 Pb        31.8932813807       37.6111874222       38.5738784584
 Pb        33.0527146363       40.3588238041       45.5710014044
 Pb        30.9263554482       44.9611357566       12.0222090105
 Pb        31.7866172958       44.0979995672       20.8411682529
 Pb        19.3365170693       38.4336465460       15.7523620322
 Pb        19.4576011982       38.4480607282       23.7465968114
 Pb        19.2361161812       38.4536612270       32.0767950118
 Pb        19.9798898435       38.3495122633       41.0104853284
 Pb        17.7786777638       44.7190162705       16.0212764852
 Pb        19.6089570200       43.9817308827       23.9807509982
 Pb        19.1608630218       44.2682833302       31.9531077745
 Pb        19.1735660520       45.0716031814       40.0152542680
 Pb        18.8155649526       52.7978887800       23.9972669385
 Pb        19.8532970837       53.4918873926       31.5162486439
 Pb        31.9073257867       43.9972438275       29.2552282564
 Pb        31.7765312482       44.3825305396       37.5212763981
 Pb        32.1937656819       44.7788157503       45.8772612102
 Pb        31.7189699641       53.8328026007       20.4866231732
 Pb        31.8081466214       53.4156005460       29.2572916114
 Pb        31.7382442603       53.9083992461       36.6470509360
 Br        37.8313238863       47.0113810450       14.7178755153
 Br        38.3360123268       46.6454623799       23.1450539543
 Br        38.2337512206       46.7940487471       31.3311142236
 Pb        20.2441691066       45.8109128553       19.6014293480
 Pb        20.0679099668       45.9622593164       27.7568907259
 Pb        20.1855856545       46.1889022042       35.9901731004
 Pb        19.9866919223       51.8150916398       20.3507032407
 Pb        20.1400264476       51.7279449571       27.9284035759
 Pb        20.0463890925       51.7420557774       35.7915274639
 Br        38.5272872028       46.3197327359       39.5091310930
 Br        38.1041778544       51.4683606227       23.3674795108
 Br        38.4580053427       51.9283508956       31.0053805487
 Br        38.0354977147       51.5959587030       39.5837320638
 Pb        47.9162576536       39.5944242380       20.7698958583
  S        20.3799935483       49.2111283840       20.2386045276
  S        20.2618710695       48.8863163202       28.4462353967
  S        20.2253144094       49.0076022593       36.7606139297
 Pb        48.7987550920       39.8024100107       29.0994528250
 Pb        46.5949970776       37.5839179152       36.9792811008
 Pb        48.7280437462       43.7849306052       28.8057352780
 Br        43.3932074640       45.7341111818       22.0176920366
 Pb        32.4316604625       46.4473006148       16.9235422932
 Pb        32.7003862206       46.3053972706       25.0309669986
  S        20.6088964425       39.5496990854       13.4942825663
  S        21.0583324253       39.1279691186       21.5449209952
  S        20.7193318624       39.2723668258       29.9071557093
  S        20.9409585433       39.2953663214       38.5440606490
  S        20.9531721844       38.2478471214       46.9018873463
  S        20.5252188496       43.6771520420       13.9333354621
  S        20.9348394696       43.1811228443       21.5805644459
  S        20.7368418959       43.3358547283       29.7907433181
  S        20.2231243619       43.3348911078       38.1578319193
  S        20.4875545521       54.4953743366       29.1542169853
 Pb        32.7677179926       46.2262452286       33.4369219261
 Pb        32.1771237958       46.4077389374       41.6409348239
 Pb        32.1971112329       52.5318710881       17.0173220019
 Pb        20.9252309753       40.9862433155       19.3465358937
 Pb        20.6287832996       41.1475160300       27.3174443954
 Pb        20.4445874419       41.3925822093       35.4292708142
 Pb        19.6576581048       40.3141948418       46.1819264721
 Pb        32.7672325277       52.1940569530       25.0000116582
 Pb        32.8892547532       51.9421445371       33.2074928827
 Pb        32.6537253562       51.8174502514       41.6072681146
 Br        42.2091045262       46.9547024766       30.1407122579
 Pb        21.5702902603       49.0169692876       17.6664662925
 Pb        21.1898317173       48.7302551099       25.7469611223
 Pb        21.2305501969       48.9990870203       33.6928959899
 Pb        21.8652921263       49.3020876300       42.5345505130
 Br        42.5289184440       46.7926803732       38.6499186713
 Br        38.8534618373       39.2867087915       17.5879779643
 Br        38.6760396385       39.1948704633       26.0797700267
 Br        38.8127237684       39.0509390392       33.9234164362
 Br        38.6580968978       38.4145642881       42.3133126548
  S        32.4334184348       49.1821816518       16.3877200680
  S        32.6645802756       49.0948431779       24.5952063507
  S        32.7945000243       49.2589446214       32.9403265983
  S        32.9612755017       49.0765450809       41.6577606493
 Br        38.7006789783       43.9398344008       17.6952767317
 Br        22.2431328142       51.7991507755       14.8834467993
 Br        22.0437450195       46.5946350014       22.8149631332
 Br        21.8998616106       46.6592468410       31.3097351863
 Br        22.0642281501       46.3981000925       38.9843741467
 Br        21.6882074613       52.1587855810       22.8024714548
 Br        21.9983043182       51.5084855096       31.1367662702
  S        21.6745299481       51.6435224704       39.0032826385
 Br        38.3753196340       43.9922592176       26.3316626603
 Br        38.6161772781       43.6061564444       34.2409825164
 Br        39.4331832075       46.1588812006       43.9912005720
 Br        40.6181962879       54.9224359529       26.1434582847
  S        38.6264821866       54.1112652820       34.2679791061
 Br        42.1707806451       51.4176124295       21.9428593461
 Br        42.3432410099       51.5869815716       30.1425071650
 Br        22.4505281483       38.9545828460       17.7332947678
 Br        22.0265052987       38.6007469329       26.3141248286
 Br        21.8004428253       38.8256389287       34.6978181240
 Br        22.6041945179       39.2441682559       42.5609963556
 Br        22.1587649153       43.9048191971       17.8546695225
 Br        22.2378646749       43.5333077120       26.0774628859
 Br        22.0223900700       43.6911692284       34.3569692131
 Br        21.6310952229       44.0481966437       42.1116375205
 Br        22.5686718832       54.6043449209       25.7920469084
 Br        21.0784749948       54.7720088834       35.2350093021
  S        33.1962419756       39.6006278438       15.0360217653
  S        33.6260477214       39.2166464088       23.1542028799
  S        33.2954237237       39.1960428848       31.8282526629
  S        33.4579957672       39.5911902825       39.8466065155
 Pb        21.6394888274       41.5535306041       15.0385891012
 Pb        22.2535494906       41.1917442459       22.9504021244
 Pb        21.9559496857       41.3925267437       31.1985319343
 Pb        22.0122864502       41.7403641352       39.4779189197
  S        34.1695432343       39.3090443140       47.7735775832
  S        33.1158691467       43.5650258626       15.2250863289
  S        33.3121101744       43.3195467414       23.1809791174
  S        33.2354420801       43.3727337724       31.6619645239
  S        33.2969556607       43.3365867025       39.8489153745
  S        33.1479062548       55.0958937161       23.5656664188
 Pb        23.8558811295       49.5490442572       13.7876732630
 Pb        22.8881505316       49.0266381298       21.2874934441
 Pb        22.8786450867       48.9675656268       29.2117833678
 Pb        22.8439670295       49.2711051931       37.5631247454
  S        33.4750024625       55.5474013233       30.9575910410
 Pb        45.9573992047       46.6714108726       20.8874589139
 Pb        44.9423557428       46.4913018484       28.7552771423
 Pb        38.7527000703       42.0979091135       14.4462334277
 Pb        38.7811941615       41.5113490839       22.9233895528
 Pb        32.5617391699       41.7660155290        9.2785459489
 Pb        33.3632252532       41.4957709498       17.1854273423
 Pb        33.4425927240       41.3148202934       25.1622784135
 Pb        33.2977700654       41.3942826719       33.7933664861
 Pb        33.7170721180       41.3518690235       41.9671299654
 Pb        34.0384362973       56.6572829866       25.5861210404
 Pb        34.3056473745       57.0079234310       33.1032896024
  S        23.2590853686       47.3485037851       19.0690081946
  S        22.9917860131       46.8668238104       27.2941523500
  S        23.0725934247       47.0101925085       35.4168174247
  S        23.0279306244       47.2531400031       43.8072352684
  S        23.2537003112       51.4603378050       19.2022329113
  S        22.9195327042       51.1483132179       27.3604316278
  S        22.8718570564       51.3394017704       35.3834333596
 Pb        38.6213541404       41.4503202168       31.2710897648
 Pb        38.8777106719       41.2644168524       39.4347415743
 Pb        44.6297562471       45.5010609287       36.8775491624
  S        23.2410469405       41.6277854537       11.8361696849
  S        23.6607404692       41.2515883027       20.4329852135
  S        23.4694766177       41.2487555570       28.7477848967
  S        23.4990384912       41.3800875412       37.0975734938
  S        22.0677996010       41.5865918956       45.6942037743
  S        23.7919674761       56.9926288776       28.5097916537
  S        46.3838725712       47.8082688125       23.2304466139
 Br        46.2005619507       46.7759014908       31.4831144345
 Br        43.3408867554       39.9795909710       18.8950917785
 Pb        39.1974822790       49.4382210166       21.4266546907
 Pb        34.0354930910       49.5043658434       18.7525507741
 Pb        34.0465185516       49.1873082436       27.1070868667
 Pb        34.2293272956       49.3012826291       35.5275270798
 Pb        34.8955325480       49.4216162187       43.5780891585
 Pb        22.9240830494       38.9635152259       12.3962427532
 Pb        23.6443179516       38.3267419523       20.8132482542
 Pb        23.4617239142       38.4240637935       29.2669557513
 Pb        23.4856550897       38.6617365094       37.5517665834
 Pb        23.1156894442       38.9440989512       45.7045864526
 Pb        22.6998803633       44.1980412895       12.6749444302
 Pb        23.5375960066       44.0410243740       20.9456833566
 Pb        23.3477355055       44.1725556452       28.9558229845
 Pb        23.7615350368       44.8133190615       37.0401961321
 Pb        22.4503436660       44.0255214316       44.9063554246
 Pb        24.0639659175       53.5073787475       20.8994961287
 Pb        23.0964339634       54.2285205425       28.7468333998
 Pb        22.9903097165       53.4905631049       36.9798633742
 Pb        39.3934107573       49.1532880735       29.5517877199
 Pb        39.3647757486       49.1633811162       38.1453492724
 Br        42.7562398701       39.1527300457       27.3312501832
 Br        42.8291354387       38.8853172357       35.1158857616
 Br        42.6867096888       38.3949325535       43.5867691463
 Br        43.2477834490       45.6189978460       18.0302306700
 Br        42.5228371123       44.0572753158       27.4925781254
 Br        42.5814593891       43.7665376852       35.5506020117
  S        49.2295020075       40.9805419836       23.1077899068
  S        45.1553212839       49.2620434509       28.7672786539
 Pb        24.3646268334       45.6586118183       16.8799479543
 Pb        24.3333552232       46.0619902711       24.9853488089
 Pb        24.2924539509       46.2247976895       32.9815995253
 Pb        24.0348835643       46.0297557038       41.5610182371
 Pb        24.5315502935       52.2599527281       17.0193039361
 Pb        24.3295061243       51.7385438140       25.1668868156
 Pb        24.6319208494       51.9021825343       32.9585898841
 Pb        23.6855027941       51.7272084696       40.9273692978
  S        48.2100778180       41.7499107438       26.9685639942
 Pb        42.5832168080       41.9816358978       13.2693660013
  S        39.5559899424       47.3450513861       19.1836598312
 Br        34.1474653246       46.6601842608       12.7561354742
 Br        34.1370713648       46.7138182315       21.9596108295
 Br        34.1121650822       46.7957250846       30.2904024229
  S        24.8407941796       49.6526683079       16.2813019689
  S        24.4954399660       48.9757884627       24.5138604565
  S        24.5500863967       49.0887282805       32.6606363540
  S        23.9240843988       49.1279929890       40.5010225949
 Br        34.1788601859       46.8656732905       38.6906397317
 Br        34.1056495646       51.6439210822       22.0110296942
 Br        34.1535805701       51.6546417960       30.2597697074
 Br        33.3395572242       52.1437395198       38.8101241269
  S        39.3701476563       47.1467148956       27.5374026002
  S        39.4042938894       47.0383330910       35.8260704207
  S        39.3943786709       51.2917665804       19.2528212264
  S        39.4071475828       51.3098226707       27.3573737088
  S        24.9803869251       39.4352588024       14.4126567140
  S        25.1367045290       39.0890869012       23.1944709136
  S        25.0063746888       39.4167947173       31.5358550719
  S        25.3389297539       39.3763988053       39.8580638560
  S        24.9735886998       43.6201562861       14.7864194726
  S        25.0291155687       43.2765725618       23.2585117460
  S        24.9761289772       43.4031606765       31.5067436080
  S        25.1082940807       43.3960603192       39.8572677503
  S        25.3379549768       55.0440655382       23.1906114540
  S        25.4708106919       54.8155815461       31.4414003787
  S        39.6989873341       51.0664177849       35.9305954503
 Pb        42.7164835702       42.2345970601       22.2375234009
 Pb        42.6259135308       41.8181876701       29.9469266840
 Br        34.8086399488       39.9881599377       10.3915955396
 Pb        24.8375478669       41.2161974272       16.4855933419
 Pb        25.1818922016       41.0605165046       25.3814675151
 Pb        24.9988357593       41.4492657936       33.5057287631
 Pb        25.2532356259       41.3605858263       41.8358981618
 Pb        24.9082179833       56.4671763796       25.6352432469
 Pb        25.1229981812       56.4864692263       33.5134685001
 Br        34.7195893955       39.1153315490       18.9296530440
 Br        34.5442560303       39.0604767202       27.3219549290
 Br        34.1412039869       38.9689597882       35.8082462723
 Br        34.6481786912       38.3698525249       43.2473977213
 Br        36.1380672637       44.3405379130        9.5011640492
 Br        34.5076876354       43.8765454972       19.0662195642
 Pb        25.7409585560       48.9022565336       19.0191569952
 Pb        25.7724586062       48.8757163693       27.0981415363
 Pb        25.7712424853       49.0268928088       35.1560046389
 Pb        25.4690773799       48.7925865300       44.0468493617
 Br        34.4843441133       43.6262427885       27.3022536277
 Br        34.2031450161       44.0348793637       35.4597805885
 Br        34.7984872165       45.4004521821       43.3690861256
 Br        34.0837257679       54.2147574982       18.7411769404
 Br        34.1068080998       54.2909681350       27.3156673058
 Br        34.7551084079       54.8712790872       35.0014016039
 Pb        42.7062988169       41.3460730939       38.6567499349
  S        40.0747474242       41.8024905214       11.8790400836
  S        40.2626029709       41.7419064822       20.4255569201
  S        40.1172129442       41.5699225983       28.8163166624
 Pb        34.1998586630       41.7726184306       13.4500368360
 Pb        34.4549824153       41.4013665451       21.4389933280
 Pb        34.6790974291       41.2676523884       30.3500556086
 Br        22.6004083294       47.0826676689       14.6895722985
 Br        26.0019026340       46.7837461895       21.6538994102
 Br        26.0526905191       46.6215065833       30.0442372527
 Br        25.9325028188       46.6614951685       38.1970397539
 Br        25.9142386638       51.5427608297       21.9959932065
 Br        25.8851767893       51.3665121674       30.0195525540
 Br        25.6813940314       52.4721878277       38.7013604394
 Pb        34.2546715340       41.3985852004       37.9768980813
 Pb        35.7216830614       41.9712176947       47.5639856368
 Pb        35.6217464082       56.6016201175       29.5662732152
  S        40.1168272225       41.1999790683       36.8693042923
  S        39.6108445240       41.1524006441       44.9850004795
  S        47.3002162799       41.1708526630       18.4251450004
 Br        46.8909842146       38.5425714061       26.1388691020
 Br        26.4638407116       39.9647075898        9.7942564367
 Br        26.3922549853       39.2473577106       18.8285125554
 Br        26.2670095354       39.0667423322       27.4249506837
 Br        26.2651593527       39.0478036521       35.6582518574
 Br        26.7898753463       42.2907221673       46.5025708502
 Br        25.8287331472       44.2003139225       10.5809678382
 Br        26.1835819342       43.7521461395       18.7349532289
 Br        26.1655897723       43.6340509025       27.2022819083
 Br        26.2372327587       43.8090221007       35.4841197793
 Br        25.1587721375       44.1510322907       43.7604764941
 Br        26.0311823613       54.9153258783       19.2335779258
 Br        26.3772940825       54.4755385490       27.3386481260
 Br        25.4874369272       54.3505179169       35.3753877961
 Br        46.9626621301       39.3637970768       34.5481728222
  S        45.7923962633       40.9471782787       21.8058982346
 Pb        34.9889292533       49.0230400990       15.3704280786
 Pb        35.3293960543       49.1652074608       23.3370295782
 Pb        25.7501598316       41.7011413595       12.6344274526
 Pb        26.2698330427       41.2234454472       21.7799125987
 Pb        26.0122150115       41.3407841021       29.7699326048
 Pb        26.0349344691       41.4768239581       38.0846346599
 Pb        29.0119719105       42.4523836062       48.1262404348
 Pb        27.0954538053       56.7903431144       22.1113012783
 Pb        26.0704721203       56.7052328244       29.5219128960
 Pb        35.3648610446       49.0759359686       31.8676253383
 Pb        35.4096549431       49.6648810237       40.0248789727
 Pb        43.3380821692       49.1511766632       23.5925519971
 Pb        43.5403759887       49.1772575442       32.2162041298
 Pb        39.9624002507       39.2311338088       12.6817224712