    1336
 i =      327, E =    -15209.2993043622
  S        39.2609357477       37.6281195690       29.4576979540
  S        39.4526700986       37.0704377239       37.5459563722
  S        39.1171198387       42.0582710539       13.0132198974
  S         8.6359947588       39.4299274781       22.9751176955
  S         8.9616963500       38.9198974839       30.8368072457
 Pb         9.2580947391       37.0253418806       22.1364576011
 Pb         9.5559107584       36.3056132611       30.2475780097
  S        38.5291656975       41.8239648600       22.0215103265
  S        39.3599935076       41.7128406191       29.6553586170
  S        35.2579771990       38.0879383405       11.9849518156
  S        35.1166303409       37.6969394794       19.8665495677
 Pb         9.2826286302       44.0750613325       28.0672741796
  S        34.9466691465       37.5956453269       28.0875206652
  S         9.6107125213       37.7075752150       19.6044350826
  S        10.3960990448       37.2829235000       27.8602133334
  S         9.7368366735       40.8606336848       17.0518340015
  S        10.2649639112       41.5890177478       27.6604078930
 Pb        10.2066176000       39.6375837198       24.9879009975
 Pb        10.0594475130       39.1680435192       33.2091754711
  S        28.3758845059       37.6891668607        8.0655067490
 Br        28.2544259390       37.7239555692       15.8828322714
 Br        28.2700786834       37.5149820888       24.2435276447
 Br        28.2992235253       37.2847936010       32.4923271993
 Br        28.5015203840       37.0510687228       40.4479938960
 Br        27.8402744744       41.8123246473        7.6987015923
 Br        27.7440059163       42.3372294866       16.3208388058
 Br        11.2864572064       43.7633154913       19.2910884909
 Br         9.6731907898       44.7305624342       30.8214649747
 Br        27.9002790766       42.1943636966       24.4911554152
 Br        27.9729380860       42.1296093300       32.7050388447
 Br        11.5667731175       36.7824554097       16.0473089196
 Br        11.8663457747       37.2548933278       23.9347065163
 Br        11.8873799894       36.9687721524       32.4650108760
 Br        11.7642683185       42.1720640941       24.0901148920
 Br        11.5453177049       41.4397064665       32.3305297488
 Br        28.4659409536       41.5373555204       40.7741491240
 Pb        10.1597040030       40.4477744607       19.5899331279
 Pb        11.2644055433       39.6219868882       29.2500650989
 Pb        12.1044393962       39.9063992752       37.6250107034
  S        28.1048761333       52.8571329226       16.5285628961
 Br        28.0295120930       52.8518346624       24.6396369867
 Br        28.9410149256       53.6602259977       32.4454837721
 Pb        12.0604262870       47.5951972379       28.0947086745
  S        35.0964855334       37.2060826634       36.3134312337
  S        35.4837363040       37.5899287615       44.4617683151
  S        34.5250057340       41.7547310453       11.8368117718
  S        34.8491106551       41.8193654909       19.9742982220
 Pb        27.8713398003       39.9439183800       13.0497666150
 Pb        28.1136171464       39.7209911463       21.3111140546
  S        13.4842655220       44.4071227037       15.1995311291
  S        11.7080384204       44.9956536212       27.5451680400
  S        12.8180953462       44.9033062474       33.3046692289
  S        14.2925145246       47.7751905865       26.6719445104
 Pb        28.1058754323       39.6472882650       29.5312486248
  S        12.8474820191       39.6936382888       18.6617690008
  S        13.1589821898       39.4085187811       26.7338022474
  S        12.7614073482       39.3556023803       35.1212178435
 Pb        28.1912172133       39.4912442794       37.7207111216
 Pb        29.3607836282       38.4541350188       45.8929594635
 Pb        28.4423576816       54.7831952884       22.3008621915
 Pb        12.0861707045       36.9908693527       18.8566076046
 Pb        13.0946190846       36.7016290577       27.2145599550
 Pb        13.3648825552       36.8036174434       35.5435984206
 Pb        12.0968917601       41.8265494365       16.7844042929
 Pb        12.8577329253       42.2913365047       26.9089727889
 Pb        13.2804964238       42.7790283783       34.7191714105
 Pb        28.9267263129       55.4651089007       29.1696493436
  S        34.9049907162       41.6482687757       28.1625097330
  S        35.0365101151       41.3593025502       36.2766041568
  S        34.6543165857       41.1950559549       44.3465553828
  S        34.7722611665       53.0488740805       19.6262188564
  S        35.3472173670       53.0870655497       27.0439478368
  S        39.0833488386       41.1978940478       37.9108228251
 Pb        43.6050371798       38.2596334965       14.6763547334
 Pb        13.0751552862       43.9460561706       21.5083844931
 Pb        12.6481170221       44.3809156737       30.5841206758
 Pb        27.0568717918       47.1089291419       10.6361095055
 Pb        28.8375159022       47.4030453746       20.0412237760
 Pb        28.9391897629       47.2920190934       27.9730550837
 Pb        28.8511048145       47.3428125167       36.0805938118
  S        13.4520222615       46.5895358256       22.7878255104
  S        13.3819807605       47.0542251062       30.5301546127
 Pb        41.8840564429       37.3235951857       22.0020266158
 Pb        41.8764015314       36.7503708396       30.3459935885
 Pb        34.8555949984       39.9038044286        9.7730827470
 Pb        35.1418156303       39.7825990144       17.5689902489
  S        14.7213180815       37.0907278707       13.2791403303
  S        14.7731121358       37.4570650455       21.5968870138
  S        14.5840159925       37.3943383562       29.6325259446
  S        13.2393074926       37.5592798955       38.2640679380
  S        13.6053729114       40.7993016568       14.0180717202
  S        14.7093511134       41.5447314129       21.6590788290
  S        14.4077001639       41.3975884747       29.6934022868
  S        14.4538716118       41.1326341871       38.4453779957
 Pb        35.0199619800       39.6624235657       25.8209631766
 Pb        35.0595089475       39.3789142696       33.7731771012
 Pb        14.0494880362       38.4895147938       15.5419812855
 Pb        14.6188296370       39.4685818375       23.6151980053
 Pb        14.4579214945       39.4079407866       31.6452119523
 Pb        14.5824699845       38.6420170726       40.3458134541
 Pb        35.8892173243       39.5148677463       42.5160360364
 Pb        36.1013509937       54.9020285507       25.1972696275
 Pb        39.6543271271       39.7459434318       14.7927717816
 Pb        39.1897995628       39.7525463562       23.9416595104
 Pb        14.6659429522       46.2110295718       16.5031185687
 Pb        14.2498826315       45.4758984779       25.1155722155
 Pb        14.7480722575       46.8642220389       32.9866760971
 Pb        39.3392641000       39.5931069518       31.5019452654
 Pb        39.2229351572       38.5304857221       40.3765679362
 Pb        35.6250241967       47.8323639484       16.0784167467
  S        26.3727011906       44.9893143716        9.2150386303
  S        28.8270260186       45.5052728773       17.7486084246
  S        28.9404360839       45.3863507328       25.8281709003
  S        29.0099254844       45.3696180774       34.0769623379
 Br        15.1458230024       45.1186395400       19.5539500727
 Br        15.5804338845       44.4172027506       28.3562713146
 Br        15.2956311823       44.5343623201       36.3582192081
  S        15.5154697890       49.9247354570       20.5822692854
 Br        15.3455577636       50.5410385188       28.7590567834
  S        28.3006998432       44.8173371282       42.3436112238
  S        28.9929435744       49.6206127284       17.8071259076
  S        28.9895118816       49.5063150860       25.8493454363
  S        28.8311373976       49.6613382338       34.0170401077
 Pb        35.9025403191       47.3042190136       24.1557433442
 Br        16.0643580003       36.9536863831       17.6842677526
 Br        16.0391870657       37.0768421592       25.5573027268
 Br        15.8748785429       37.1061521208       33.8360182720
 Br        15.5090001616       35.9993100357       41.3572697163
 Br        15.9358337837       41.9305159316       17.4222325498
 Br        15.9742204591       41.7777322972       25.5262833141
 Br        15.7044885369       41.7847727299       33.5112447311
 Pb        35.9548715002       47.2328026360       32.7881460045
 Pb        36.4989785003       48.2191137427       40.5465368042
 Pb        42.0555216242       36.8355789181       38.5792466906
 Pb        15.6467026023       39.5218875029       12.5291281484
 Pb        15.2726636509       39.6480370891       19.7634596896
 Pb        15.5687829428       39.5352922545       28.0069048018
 Pb        15.8598868504       39.3262556880       36.8808837171
 Pb        41.5331926518       43.0463081485       13.4382874424
  S        29.4896682479       39.9677574959       10.6330900504
  S        29.4861398567       39.7289439355       18.7716736262
  S        29.5204685080       39.6693086246       27.0133574145
 Pb        15.8660411501       47.2758360009       21.9108664327
 Pb        15.7494008878       47.3509556007       28.9446988840
 Pb        17.0851183495       48.1521147330       37.7178582561
  S        29.5524156651       39.5554361945       35.1828740017
  S        30.0007644512       39.3895656076       43.4088351968
  S        29.1441244340       56.1872382931       26.6510369004
 Pb        43.1429514062       43.8432760267       22.6200939820
 Pb        42.1816576158       42.8232974473       30.8480130871
 Pb        39.0847075784       47.8277351296       16.9286314640
 Pb        40.3495699543       47.7260741689       25.8381152599
 Pb        39.9405439047       47.2481568067       33.6650548450
  S        17.1388399116       45.3221244499       15.7925287846
  S        16.8397474521       45.2050151220       24.0414360584
  S        16.7685171184       45.2577902659       32.0565680774
  S        17.5709784933       46.3355524431       39.5378621249
  S        16.7132821488       49.2030696235       24.0546203974
  S        16.8129119483       49.0925269523       31.9349017373
 Pb        41.6541853478       41.7409900179       38.7486044223
 Pb        43.6445418711       47.3683203714       24.4058017631
  S        46.6518310018       38.8024960296       26.9305661531
 Pb        29.3829780371       36.9644656420       10.5369353476
  S        17.0810934101       39.2776765297       14.9928248355
  S        17.4551730309       39.4843771650       23.0944271648
  S        17.2399665869       39.4358141600       31.1428003194
  S        17.0520432771       38.7396480986       39.3234132105
 Pb        29.4674178449       36.7536614511       19.3398078450
 Pb        29.4238834451       36.7144100840       27.5041566788
 Pb        29.5751400589       36.6724376922       35.6498652119
 Pb        30.0609937254       35.6952047133       43.3991967948
 Pb        28.1797408210       43.1474476813       10.3110646729
 Pb        29.5279172342       42.5194881715       19.2942968823
 Pb        17.2124809699       36.5958019388       14.2830455207
 Pb        17.3221284257       36.7870197986       22.3504880379
 Pb        17.1851927431       36.6522493616       30.3631600757
 Pb        17.7173379633       36.1560811393       38.8372681101
 Pb        15.4718781938       42.7394232606       14.5288154879
 Pb        17.2278481812       42.2896176895       22.4773229040
 Pb        16.9607266442       42.3992422196       30.3643919850
 Pb        16.7116907935       42.8038409275       38.2945619220
 Pb        16.7940956708       51.2534279660       22.4827641814
 Pb        17.5297820234       51.7849828113       30.1094577982
 Pb        29.5519879419       42.4855588284       27.5364785089
 Pb        29.7009008640       42.3384191406       35.7029224849
 Pb        29.3959498763       41.9903013776       43.5937778994
 Pb        29.3739078329       52.2140947927       18.9261296338
 Pb        29.5400366512       51.7107180586       27.6896713990
 Pb        29.4958009784       52.0450700440       35.1349717790
 Br        35.3700103001       45.4003101209       13.1101648874
 Br        35.9403439686       44.9874588446       21.5839383520
 Br        35.8977440459       45.0215953654       29.6674327878
 Pb        17.7896054296       44.1496515214       18.1244480396
 Pb        17.9912488113       44.2799453104       26.3350537337
 Pb        17.9024426016       44.2923274533       34.3509392537
 Pb        17.4937467368       50.0813615007       18.8376373059
 Pb        17.7571478299       50.0516867023       26.5458591815
 Pb        17.7052301378       49.8377923944       34.2447930127
 Br        36.3751690323       44.3972334281       37.6130759884
 Br        35.8277708856       49.8047970159       21.7335319919
 Br        36.2303822931       50.1201531583       29.3725684431
 Br        35.9252384438       49.4891460741       37.9549977067
 Pb        45.2951901600       37.7697000301       18.8789993134
  S        17.9565103882       47.4883300609       18.7014023045
  S        18.0758194973       47.1400096446       26.9964097247
  S        17.8482067415       47.0964709411       35.2125996541
 Pb        45.6050316650       36.2806329116       26.3494686679
 Pb        42.6213840859       35.5668986048       34.5928211901
 Pb        46.2480611144       41.4631856204       26.3130136633
 Br        40.6823861274       44.0897225266       20.2296392998
 Pb        30.0084680955       44.8155863117       15.3043613924
 Pb        30.3669843877       44.5373414071       23.4922463055
  S        18.3711468259       37.7295231192       12.0255882462
  S        18.7498354973       37.4977511967       19.9937917883
  S        18.6726251788       37.4804142592       28.1609038482
  S        18.6573715313       37.3426406832       36.4493809442
  S        18.4300960831       35.9856675105       44.1845033767
  S        18.2105644953       41.8536408063       12.3394249143
  S        18.5628951240       41.5113774577       20.0446239879
  S        18.6021501763       41.5481280387       28.1754000996
  S        17.8866957113       41.2433289948       36.4087337978
  S        18.1344357688       52.7836532288       27.7217675802
 Pb        30.4585770038       44.4102425961       31.7770194597
 Pb        29.7151951945       44.4660671150       39.9730355763
 Pb        29.7937865623       50.9228587108       15.4458208261
 Pb        18.4001306018       39.4058484120       17.8058307226
 Pb        18.5622052109       39.5083612054       25.7861637988
 Pb        18.3634772857       39.4017555001       33.7265930235
 Pb        17.4221892481       38.0210018009       43.1013083040
 Pb        30.4323855210       50.3874669452       23.4350992184
 Pb        30.6905946339       50.1311520459       31.6177910355
 Pb        30.5892587186       49.7904851032       40.0149423447
 Br        39.8956073356       45.1497445188       28.2997695597
 Pb        19.1085692821       47.2628869187       16.1095375351
 Pb        18.9403675660       47.2329936743       24.3204942242
 Pb        18.7769635076       47.1635723335       31.9556775069
 Pb        19.5534406253       47.2404622347       40.8696132047
 Br        40.3598652664       44.8398174860       36.8778352111
 Br        36.8346519080       37.9131235256       15.8912869624
 Br        36.4511705752       37.5139637424       24.1125796283
 Br        36.5592344026       37.3580511976       32.1533254467
 Br        36.5620686147       36.5448020740       40.5436116516
  S        30.0210176370       47.5362155848       14.7809024429
  S        30.3134050480       47.4500970501       22.9704838373
  S        30.5343074068       47.4591133320       31.3392727094
  S        30.7822260721       47.0599690949       39.9687736360
 Br        36.0909522613       42.3801204255       16.2194004128
 Br        19.8036378224       49.8270780494       13.1881380859
 Br        19.5714746013       44.9920209880       21.3385131527
 Br        19.6985365074       44.8311724885       29.6620920143
 Br        19.7307750252       44.3628312000       37.3753808440
 Br        19.4770409836       50.4683924480       21.1260850654
 Br        19.6441464991       49.7551831573       29.6374311144
  S        19.4075644642       49.6888312659       37.5127589386
 Br        35.9100327180       42.2682074605       24.4935974637
 Br        36.3854716586       41.7738248625       32.4356658352
 Br        36.4119715546       42.5825282955       40.9892343685
 Br        38.3135513348       53.1804292740       24.5194436570
  S        36.4237049267       52.2411119979       32.6707020664
 Br        39.8698070277       49.6765128787       20.2137106956
 Br        40.1103509324       49.7073021668       28.3134991836
 Br        20.1829140411       37.3520684641       16.2113789756
 Br        20.2269691268       37.2770205545       24.3696121586
 Br        20.0168531167       37.1942002431       32.5234392706
 Br        20.2763037096       37.2023596127       40.3945713904
 Br        19.7499476148       42.2289745932       16.3679188942
 Br        20.0164637445       41.9029654560       24.4471268139
 Br        19.7116487870       41.8772625729       32.6657185255
 Br        19.4006191702       41.8757233888       40.3343337673
 Br        20.1622189716       52.8958072029       24.3035919460
 Br        18.7749344866       52.8914264052       33.7505628822
  S        31.1191299874       37.6381934720       13.6073866011
  S        31.0200133886       37.6049479120       21.5935843079
  S        31.0098265341       37.5767216688       29.7766949887
  S        31.1581288186       37.3331354055       37.9514460621
 Pb        19.3872165288       39.8141122935       13.5425282780
 Pb        19.9209630864       39.5713496718       21.4190367060
 Pb        19.8576405225       39.5885584852       29.5536887710
 Pb        19.7297637827       39.6165414891       37.6448575193
  S        31.2127734418       36.5478926189       45.6698791257
  S        30.6443861554       41.5776068825       13.8430994358
  S        30.8071624602       41.6686040346       21.6739373369
  S        30.9439087589       41.6265389196       29.8762387809
  S        31.0551467740       41.4211137713       37.9688842683
  S        30.8158424397       53.5393084292       21.9461503687
 Pb        21.4351511330       47.6117536003       12.1097766165
 Pb        20.4759255383       47.3643204761       19.7350964455
 Pb        20.6791623500       47.2910372705       27.7449781904
 Pb        20.4966333848       47.3203338906       35.9472071164
  S        31.1827350851       53.7755961134       29.4063678362
 Pb        43.1089692748       44.9366402723       18.8431726265
 Pb        42.5454742013       44.5301602057       26.8161760447
 Pb        36.1664118804       40.1826911612       13.5272045290
 Pb        36.2983810252       39.8785420670       21.3574359769
 Pb        30.1599913255       39.7105624161        7.9972552973
 Pb        30.9615577311       39.5527745811       15.7585089641
 Pb        30.9777505643       39.5369642283       23.7975594702
 Pb        30.9902735544       39.4752638240       31.9871674186
 Pb        31.1341810420       39.2593541147       40.0485291260
 Pb        31.7555703973       54.9785083788       24.0236989189
 Pb        32.0597922113       55.1586072774       31.5819835045
  S        20.8503512685       45.6698687309       17.5488930996
  S        20.7823676813       45.2154864550       25.7652258659
  S        20.7387568467       45.1746647588       33.7987942769
  S        20.6931258811       45.1165468722       42.0610430454
  S        20.8951242851       49.7617377084       17.5373727838
  S        20.5299250911       49.4285974381       25.8209238237
  S        20.5441504034       49.4338301010       33.8428459328
 Pb        36.2738985062       39.6334834367       29.4563596928
 Pb        36.4554256386       39.3838875742       37.6024038662
 Pb        42.4449585293       43.6349675976       34.8851520077
  S        21.1679560631       39.7105007111       10.5883691395
  S        21.3588835684       39.6607326552       18.8039150850
  S        21.3908123700       39.5512352567       27.0691319140
  S        21.2374201520       39.5311783448       35.2426945924
  S        19.8015196773       39.3215492928       43.7832834225
  S        21.4130813530       55.3032381274       27.0617282124
  S        43.9087555905       45.9220976768       21.2344642597
 Br        44.0936523976       44.4536304649       29.3787656835
 Br        41.3902649355       37.4047235990       16.2025616330
 Pb        36.8277630476       47.7449773268       19.7382135035
 Pb        31.6570832934       47.8513212069       17.1613859428
 Pb        31.7788718924       47.4453439871       25.5094058884
 Pb        32.0270916212       47.4255079615       33.8547435768
 Pb        32.7444484306       47.2204618491       41.8954628844
 Pb        20.7924908298       37.0525128023       11.2514588007
 Pb        21.3065730929       36.7237753528       19.2476816747
 Pb        21.2869575472       36.7424223447       27.4520087382
 Pb        21.2213332041       36.7873352346       35.5079623505
 Pb        20.7690730146       36.7468236653       43.3554498176
 Pb        20.4719714090       42.3560208219       11.2080375359
 Pb        21.1350421385       42.4479313759       19.3708813694
 Pb        21.2444269809       42.4585126588       27.4429822797
 Pb        21.5001827039       42.9320642792       35.3394299048
 Pb        20.1542388611       41.8251936383       43.0901916289
 Pb        21.7211312499       51.7998267244       19.2052952606
 Pb        20.7483579024       52.5775859614       27.2502286625
 Pb        20.6708758000       51.5499289308       35.4792153337
 Pb        37.0607837129       47.3540417975       27.8344128646
 Pb        37.2512916182       47.1441971864       36.3456674548
 Br        40.3668470775       36.6878595744       25.1388242707
 Br        40.5089292626       37.2130212939       33.4855042563
 Br        40.4612474326       36.0805700434       41.2815984832
 Br        40.8601090621       44.1729303944       15.9607864587
 Br        40.0576668300       42.3298639012       25.5425693290
 Br        40.4141251942       41.8613173841       33.6836670928
  S        46.6076464183       39.7252357681       20.2273032569
  S        42.8320010075       47.2559448732       26.9446423109
 Pb        21.9956237209       43.9815284918       15.3901335041
 Pb        21.9687457135       44.5016112756       23.3731066416
 Pb        22.0424869690       44.4370702511       31.4236839876
 Pb        21.7375455629       44.0127405309       39.7349223754
 Pb        22.1236736155       50.4750955278       15.2993732396
 Pb        21.9906975234       50.1421348796       23.6567281738
 Pb        22.2909110897       50.0988699798       31.4587476802
 Pb        21.4473242074       49.6740019823       39.3847156172
  S        45.5784440109       40.8164390943       23.7604120342
 Pb        39.9567359120       40.3988350595       10.9728745075
  S        37.2173767338       45.6517604684       17.5368594554
 Br        31.6907236175       44.5931710902       11.7432357489
 Br        31.8267104710       44.9708571106       20.3498957397
 Br        31.8003533389       45.0077228995       28.6470772682
  S        22.5415164758       47.8778630668       14.6273993857
  S        22.1355045094       47.3878560948       22.9606618772
  S        22.2754539621       47.2958538169       31.0860262329
  S        21.7210257841       47.0926573333       38.8809234471
 Br        32.0884961568       44.8296680712       36.9321894614
 Br        31.7567079473       50.0010348522       20.3768249381
 Br        31.8550715516       49.9165660045       28.6821486046
 Br        31.2173400149       50.1557473681       37.2074749594
  S        37.0249956714       45.3876165723       25.7940060255
  S        37.2710906892       45.1128916391       33.9722660566
  S        37.0306259470       49.5892395215       17.6024100261
  S        37.0854119469       49.5311461678       25.6842978859
  S        22.7230491323       37.6132172291       13.4573916562
  S        22.8795256952       37.5980315921       21.6023800819
  S        22.8576024993       37.5215967417       29.8337397213
  S        22.9567907902       37.4912345741       37.8958994165
  S        22.5639011635       41.9021739722       13.4172778564
  S        22.7139450040       41.6465545344       21.6690813140
  S        22.7370431165       41.6000378985       29.8849854742
  S        22.8728997846       41.4861793519       38.0657820933
  S        22.9630481972       53.3337550922       21.6402867425
  S        23.1466447452       53.0776489384       29.9326744425
  S        37.5319926834       49.1223306819       34.1719711268
 Pb        40.1725121379       40.3966602473       20.3687785451
 Pb        40.6628571319       39.7396007449       28.1641198377
 Br        32.3269111066       37.8662708895        9.1126888235
 Pb        22.5983717119       39.5727478790       15.5030037447
 Pb        22.7913307857       39.5511631006       23.7895785836
 Pb        22.8150171147       39.5176103238       31.8887233009
 Pb        22.9160373740       39.4279562114       39.9616609383
 Pb        22.5930617144       54.7663206212       24.0304172903
 Pb        22.8457533958       54.6843328736       32.0592914139
 Br        32.5111225411       37.1616981335       17.3404928610
 Br        32.2247659130       37.1139791154       25.3911206430
 Br        32.3484472812       37.2464514514       33.6607878245
 Br        32.4542287893       37.0813025799       41.8015857325
 Br        33.1930489947       42.2890241380        8.3864090225
 Br        32.1363670910       42.1488714981       17.4359828545
 Pb        23.3242891634       47.2553387509       17.3851880679
 Pb        23.4466621247       47.2361204371       25.5238200606
 Pb        23.5292804941       47.2145117864       33.5941222179
 Pb        23.0355880294       46.6935193893       42.3272054654
 Br        31.9579996204       42.1615669178       25.5012531625
 Br        32.0239437123       42.0752537740       33.6798464246
 Br        32.0428254130       43.0480436418       41.6779666667
 Br        31.7074015087       52.5866362293       17.1431465021
 Br        31.7995171005       52.5800188924       25.7198078285
 Br        32.5266975455       52.9849045381       33.4342778727
 Pb        40.1706643843       39.2929692866       36.2567856414
  S        37.6984259771       39.6982761775        9.6751336349
  S        37.8286462679       40.0897454351       18.8217798110
  S        37.6343861888       39.6991306050       26.8662805504
 Pb        31.8613120136       39.8994941826       12.0544909036
 Pb        32.1710456596       39.7315728483       20.1823754997
 Pb        32.0902224671       39.6334916182       28.2557030707
 Br        20.1044036528       45.3282592544       13.2727033240
 Br        23.6036668239       45.1551502031       20.1564234831
 Br        23.8026747292       44.8824534808       28.4639251595
 Br        23.6504388623       44.7908943309       36.4932392747
 Br        23.5305331490       49.8743035126       20.4005535069
 Br        23.5844823778       49.6655158458       28.4823676789
 Br        23.4120736493       50.4787071298       37.1279595715
 Pb        32.4300509781       39.4211307328       36.5589618539
 Pb        32.9851234272       38.4774048222       44.4385905795
 Pb        33.3563404784       54.7988511077       28.0141420860
  S        37.7236601104       39.3724452876       35.0683734741
  S        38.5484284700       38.9840436871       43.0691220266
  S        44.9801415732       39.3717397514       16.6631707247
 Br        45.3483014890       36.8378931559       22.8380894615
 Br        24.1321640746       37.3337572490        9.2183380425
 Br        24.1337941717       37.4513326713       17.2684703015
 Br        24.2149528558       37.3135524377       25.5690221881
 Br        24.1555081697       37.1719141770       33.8051423681
 Br        24.0288449927       38.3779228213       43.2162510634
 Br        21.9520509842       45.2935497427        9.5283132328
 Br        23.7659571453       42.2210010988       17.3144077619
 Br        23.9596038115       41.9821072111       25.6336088906
 Br        23.9409612337       42.0239084582       33.7358553843
 Br        22.8799458351       42.0246974120       42.0863253085
 Br        23.7494268969       53.2818758526       17.6402166789
 Br        24.0055247611       52.7881159273       25.8147780901
 Br        23.1627062771       52.4928797347       33.8707497412
 Br        44.3212330846       36.2901620503       32.4796223232
  S        42.8889578986       38.6766884748       19.7039373987
 Pb        32.5859881340       47.3497223389       13.7612539108
 Pb        32.9566392145       47.4765377454       21.7952492203
 Pb        23.5606413784       39.6701686747       11.7294948318
 Pb        23.8540648931       39.6745420604       20.0362834172
 Pb        23.9245252443       39.6190284564       28.2734499203
 Pb        23.8054862701       39.5722335717       36.2237071580
 Pb        25.4344805745       39.2054250849       45.5118330926
 Pb        24.7274337813       55.1060231561       20.5809789921
 Pb        23.7037277982       54.9994358202       28.0228207223
 Pb        33.1342337009       47.2487394936       30.1389181839
 Pb        33.2778061156       47.6174653947       38.3597136179
 Pb        41.0613535172       47.2779908391       21.7952202012
 Pb        41.3074272034       47.3806891186       30.3429881787
 Pb        37.6797474144       37.3424231303       10.9477557100