    1336
 i =      140, E =    -15406.3462141702
  S        38.3319837434       37.7776019942       28.4951830287
  S        39.0811294323       36.9605434676       36.0086134017
  S        38.2768419416       41.8039805080       12.1398062391
  S         8.0464085211       39.7475373828       22.0328635863
  S         8.4583715762       39.1694178555       29.8660781563
 Pb         8.6598498280       37.3258408516       21.2206798707
 Pb         9.1201884034       36.5813809359       29.3791945204
  S        37.4860589705       41.9071270960       21.1808544746
  S        38.4837992546       41.8568390122       28.6267254468
  S        34.2153843753       38.1847794841       11.0738956485
  S        34.0531932748       37.9406992721       18.8170921940
 Pb         8.6589559456       44.2005690567       27.1116376426
  S        34.0689381533       37.7349605879       27.0882662743
  S         8.9159687012       38.0178877923       18.6735540762
  S         9.8735177184       37.5117647216       26.9261472881
  S         8.9938460983       41.1545612318       16.2309915127
  S         9.7112287745       41.7734826905       26.5848535225
 Pb         9.7171295070       39.8623880482       23.9762568874
 Pb         9.6491650588       39.4888043561       32.2085955401
  S        27.3464718776       37.9658997166        7.1928575213
 Cl        27.4393534496       38.0949604083       14.8615499825
 Cl        27.4350492117       37.7905649604       23.3233900665
 Cl        27.5379392240       37.5110383187       31.4489158490
 Cl        27.7610773791       37.3506874588       39.3511756282
 Cl        26.8296521667       41.9453149551        6.9720662785
 Cl        26.8143452264       42.4524928816       15.4838126722
 Cl        10.8487517775       43.8658665559       18.2682456546
 Cl         9.1622072492       44.6401526829       29.7318610680
 Cl        26.9775285943       42.3333990863       23.6237180029
 Cl        27.1503571515       42.2394265118       31.6811699677
 Cl        10.9567841884       37.1853141722       15.2257585514
 Cl        11.2446596041       37.6613794533       22.7253957973
 Cl        11.3532672968       37.3856002211       31.4040940399
 Cl        11.3451437306       42.1798988590       23.1341837011
 Cl        11.0976503413       41.5683216945       31.2733141244
 Cl        27.7602766682       41.5565448445       39.6801632666
 Pb         9.4948399639       40.7401666667       18.7452514629
 Pb        10.7309173588       39.8832377214       28.2470561296
 Pb        11.5223120375       40.1298588029       36.5071658151
  S        27.3104599095       52.9867517904       15.6607467781
 Cl        27.4399117390       53.0876336611       23.7111613223
 Cl        28.1546588830       53.6439374292       31.6434488908
 Pb        11.3782531191       47.7476001156       27.0599971714
  S        34.2055465910       37.3459958594       35.2486575674
  S        34.7363201874       37.7964448853       42.9732477461
  S        33.9366185709       41.8460514231       10.9403476425
  S        33.8402636545       42.0831065260       19.1957346270
 Pb        27.0395979844       40.2430407421       12.1377789672
 Pb        27.2925896028       39.8651166963       20.3489513315
  S        12.7690296848       44.5077200486       14.2957055393
  S        11.0459466639       45.1563191162       26.5026840289
  S        12.1773361879       45.0081531986       32.2659816255
  S        13.6238510395       47.9230840780       25.6493077260
 Pb        27.3567213530       39.8192363022       28.5148654564
  S        12.1883107046       39.9459625452       17.7952633127
  S        12.6131344244       39.6014095999       25.7086698199
  S        12.3037955229       39.6144211775       34.0140863523
 Pb        27.4523719402       39.6076541794       36.5739963211
 Pb        28.5690345873       38.6144964875       44.7395810290
 Pb        27.7254926449       54.7654326070       21.3311117718
 Pb        11.3682497922       37.2643758018       17.9144594697
 Pb        12.5398173946       36.8966724752       26.2609841615
 Pb        12.8486249935       37.0095059515       34.3384968251
 Pb        11.3863577282       42.0262376743       15.8849673846
 Pb        12.3090370625       42.4860769579       25.8225422349
 Pb        12.8254771688       42.8853488281       33.6324359145
 Pb        28.0226426120       55.3314566957       28.3591366293
  S        34.0634745267       41.8189418405       27.1931026459
  S        34.1364007124       41.4745343368       35.0558927004
  S        33.6626763941       41.3350701064       42.8413234770
  S        33.8631856866       52.8208357504       18.6597462118
  S        34.3300338122       53.0571204195       26.3464474557
  S        38.2390477364       41.2328066881       36.6808394590
 Pb        42.9096069037       38.1517036526       13.7528591381
 Pb        12.4356576871       44.1040795980       20.4550752567
 Pb        12.0039907912       44.4648423818       29.5545358866
 Pb        26.1057276324       47.3267838292        9.4183362757
 Pb        27.9509397905       47.4211246832       19.1697627464
 Pb        27.9846966889       47.3339062995       27.0054890952
 Pb        27.8826631624       47.3644572276       35.0227401092
  S        12.7390533906       46.7480318894       21.7511634617
  S        12.6667199805       47.1663411241       29.4911612615
 Pb        40.9021149777       37.5282923227       20.9876957041
 Pb        40.9292519565       36.8601500952       29.3456440145
 Pb        34.2086947543       40.2636637473        8.6794643154
 Pb        34.2384894502       40.1755615849       16.6739016595
  S        14.0835378902       37.2221947744       12.4762050329
  S        14.1607632906       37.7375416470       20.6451590739
  S        13.9880674004       37.6361658293       28.6650486368
  S        12.6537449951       37.7789820318       37.0966984675
  S        12.9154280896       40.9073693151       13.1744339001
  S        14.1665048371       41.8128616698       20.7188988784
  S        13.7922948047       41.6287002644       28.6591196817
  S        13.8303558015       41.3523883404       37.3833060217
 Pb        34.1081523491       39.7926092020       24.7593104413
 Pb        34.2504778271       39.4550548714       32.6647687069
 Pb        13.4013725574       38.6509330799       14.7337798079
 Pb        13.9928235071       39.7468458009       22.6833872544
 Pb        13.8774497237       39.6758445680       30.6688403079
 Pb        13.9273645996       38.7603948075       39.2711707159
 Pb        35.0652327276       39.7093587483       41.0403138302
 Pb        35.2247684184       54.7710223229       24.4338477900
 Pb        38.8939858734       39.5135757808       13.8836280613
 Pb        38.2490022931       39.7916701242       23.0248139442
 Pb        13.8726718099       46.2760148130       15.7092598647
 Pb        13.5298946363       45.6455691539       24.0781712508
 Pb        14.0535853523       46.9939964320       31.9345070512
 Pb        38.4816815994       39.7727276815       30.5331080107
 Pb        38.4308321661       38.6044789389       38.9180709701
 Pb        34.7519319379       47.4812273821       15.3713570706
  S        25.2612100876       45.1147075158        8.2260205132
  S        27.9360416625       45.5258992109       16.8065087895
  S        27.9668539541       45.4443043853       24.8431657837
  S        28.1037445992       45.4270528611       32.9839617724
 Cl        14.4422223188       45.1782987978       18.6381239148
 Cl        14.9438333178       44.5857682057       27.3308231781
 Cl        14.7313956231       44.5269021304       35.1723776648
  S        14.8146030772       50.1177654550       19.5697358179
 Cl        14.9007845282       50.5202653533       27.7316635938
  S        27.4399068792       44.7682653832       41.0330083848
  S        28.0814445447       49.6973071687       16.9504774622
  S        27.9939770015       49.5907063329       24.8044920017
  S        27.9312675611       49.6740785087       32.8944634951
 Pb        34.8044943049       47.3038073670       23.2439191563
 Cl        15.5275073184       37.2752350196       16.7417265728
 Cl        15.4837234718       37.4209505857       24.6037973994
 Cl        15.2320392672       37.4470056361       32.8533137355
 Cl        14.8631829544       36.2882921798       40.0825416459
 Cl        15.2760594740       42.1264061058       16.5292112138
 Cl        15.4119299155       41.8934794774       24.5439897877
 Cl        15.1041284947       42.0242843926       32.3539173526
 Pb        34.8560247611       47.2653332136       31.6242050235
 Pb        35.4026485920       48.2170151404       39.2261733727
 Pb        41.5254456145       37.1354303268       37.4598186436
 Pb        14.9344524175       39.6557460221       11.6610376858
 Pb        14.6495425684       39.9116954655       18.7951880909
 Pb        15.0054177733       39.7575229885       27.0065846653
 Pb        15.2150698483       39.5142568558       35.8397589216
 Pb        40.6948619046       42.8129972140       12.5490360170
  S        28.6321982647       40.2692619172        9.7476904327
  S        28.6605009909       39.8415136143       17.8237486316
  S        28.7337633349       39.8302641656       25.9926938513
 Pb        15.1537128954       47.4395874786       20.8529715789
 Pb        15.0538698699       47.4188552062       27.9268907193
 Pb        16.3245320461       48.2875208738       36.5709977308
  S        28.8031884071       39.7246799787       34.0329825130
  S        29.2292080610       39.5201928286       42.2621354761
  S        28.4664243238       56.1875309239       25.9109079054
 Pb        42.0832270002       43.8447011555       21.7889742679
 Pb        41.2279104233       42.9226700453       29.8209617133
 Pb        38.3390228399       48.1691315939       16.0685986740
 Pb        39.2110245399       47.7808461008       24.8080412107
 Pb        38.8300566904       47.3041879547       32.5194008256
  S        16.3420958031       45.4308725342       14.9557999170
  S        16.1132402916       45.3212705813       23.0111636378
  S        16.0542937776       45.3782648786       30.9741201111
  S        16.8492165062       46.3700495134       38.2837403951
  S        16.0250488683       49.2923029258       22.9755876042
  S        16.1428892689       49.1932308427       30.8232404994
 Pb        40.7133622465       41.9397945406       37.6275542515
 Pb        42.5558173056       47.4075288396       23.4985950673
  S        45.5192757859       39.1182758526       25.6537352963
 Pb        28.5374998438       37.2903785629        9.6055521716
  S        16.4061709430       39.5218494440       14.1196526438
  S        16.8409982283       39.6886246192       22.1329816722
  S        16.6374602045       39.6700480578       30.1040370729
  S        16.4473575380       38.9801567190       38.3279773070
 Pb        28.6487670854       36.9630526525       18.3274059106
 Pb        28.6444121778       36.9355049702       26.4035015777
 Pb        28.8338394546       36.8333341548       34.4266602745
 Pb        29.2298379494       36.0385716131       42.1586755635
 Pb        27.1748627011       43.4015086955        9.3103440610
 Pb        28.6595801796       42.6729283297       18.3367830862
 Pb        16.5882244781       36.8176868327       13.4588544139
 Pb        16.6528215115       36.9968672439       21.4376871660
 Pb        16.6022209295       36.9092476621       29.4317859302
 Pb        17.0645578453       36.3998798427       37.8211336905
 Pb        14.8032205469       42.8356969661       13.7282378375
 Pb        16.6593960301       42.5272029664       21.5947957442
 Pb        16.3086208089       42.6988256329       29.3063301775
 Pb        16.0710014111       43.0600222153       37.1645147255
 Pb        16.1864379077       51.3689844936       21.4391604504
 Pb        16.9240912269       51.7009788816       29.0947022307
 Pb        28.8120729427       42.6603000061       26.4232931048
 Pb        28.8475714660       42.4939502670       34.5475808197
 Pb        28.6531211327       42.1677141015       42.3143768960
 Pb        28.7184897520       52.2310045071       17.9473549114
 Pb        28.6816327701       51.6812707711       26.6175661291
 Pb        28.7155121703       51.9639538400       34.1031712858
 Cl        34.6707301485       45.1992523106       12.6623698405
 Cl        35.1460822214       44.9771540349       20.8887436067
 Cl        34.7294014623       45.2199516299       28.6297766328
 Pb        16.9651619863       44.2470964571       17.3041333537
 Pb        17.2124775701       44.3929585646       25.3800410181
 Pb        17.2128041025       44.3618492676       33.2559843742
 Pb        16.8290932246       50.1930405535       17.8458845967
 Pb        17.0429017352       50.1559513990       25.5163345625
 Pb        17.0285693313       49.9307570866       33.1508122740
 Cl        35.4604521949       44.3962563238       36.3032538680
 Cl        34.8598117328       49.6900032829       20.8749407469
 Cl        35.1846993197       50.0344580479       28.3318389420
 Cl        34.8292627537       49.3033736685       36.7383795832
 Pb        44.3276879059       37.9501628131       17.9122009334
  S        17.1776653432       47.5837666617       17.8579430280
  S        17.3243700962       47.2493408911       25.9774456709
  S        17.0456895863       47.1851008957       34.1209956152
 Pb        44.6474509639       36.4165355339       25.3338805775
 Pb        41.1175688948       35.7419302839       33.8538570926
 Pb        45.1555490044       41.9065276498       25.2981514070
 Cl        39.8380609428       43.8469383696       19.5077011036
 Pb        28.9020908773       44.8804652599       14.2631013053
 Pb        29.3019122491       44.6396394141       22.4046218587
  S        17.6918570698       37.9589084199       11.1764439988
  S        18.0660418907       37.7302723114       19.0517340777
  S        18.0286788055       37.6991400130       27.1768170199
  S        17.9870173110       37.5544816048       35.3733741529
  S        17.7316918865       36.2394411807       42.7790843930
  S        17.4881324212       42.0756163709       11.4621549004
  S        17.9215266068       41.7449991291       19.1082158051
  S        18.0111164947       41.8176735421       27.1384768555
  S        17.2338070556       41.4490022146       35.3066547140
  S        17.5810111535       52.7775531857       26.6979549177
 Pb        29.4896063145       44.2758644812       30.6487892161
 Pb        28.7949444254       44.3898120417       38.6271996107
 Pb        28.7350824979       50.9497641207       14.4964451377
 Pb        17.7367154698       39.6190670486       16.8563847048
 Pb        17.9383830361       39.7256831209       24.7659424685
 Pb        17.7656483109       39.6744393236       32.6878794756
 Pb        16.7541666918       38.3629928802       41.8382401646
 Pb        29.4475535213       50.4543128004       22.3674337846
 Pb        29.7606599173       50.2560511168       30.3999849570
 Pb        29.5535540987       49.7642251143       38.7611265581
 Cl        38.7421328012       45.2478562350       27.2083683905
 Pb        18.3002602330       47.3611119767       15.2468875381
 Pb        18.1966634862       47.3316722198       23.3077253092
 Pb        18.1110614356       47.2403788410       30.8181804433
 Pb        18.7704056436       47.3523897102       39.6574489442
 Cl        39.1082165402       44.7577116447       35.6371218769
 Cl        35.8534048859       38.2686354946       15.1717414339
 Cl        35.4967767356       37.8247147577       23.1559094209
 Cl        35.6643589179       37.5468748256       31.0251389963
 Cl        35.7296636973       36.8461443999       39.2121772446
  S        29.1692642009       47.6599183793       13.8026782091
  S        29.3226358115       47.4755883795       21.9667250179
  S        29.4868537790       47.5906469998       30.1976065888
  S        29.7112308028       47.0299787457       38.6461162369
 Cl        34.8941756733       43.0045463828       15.8131858002
 Cl        19.0618525655       49.8588449413       12.5148909282
 Cl        18.8653178114       45.1039841750       20.3069444295
 Cl        18.9079233754       45.0709909348       28.6046380159
 Cl        19.1184703143       44.4650618191       36.1370178398
 Cl        18.6944582911       50.5944680409       20.0453556671
 Cl        18.9124320712       49.7871399056       28.5477281768
  S        18.6768191570       49.7985973873       36.3734407958
 Cl        34.9372841425       42.3202481053       23.6341350279
 Cl        35.5866955972       41.7207237705       31.3714510935
 Cl        35.3428901926       42.7927465585       39.6491098067
 Cl        37.2327330744       53.0369638872       23.8413838231
  S        35.4651240557       52.2931377728       31.4879694832
 Cl        38.6479758863       49.5514230502       19.4014672591
 Cl        38.8736759466       49.5867670428       27.3209957623
 Cl        19.5058740601       37.6871986409       15.3661806754
 Cl        19.5812476521       37.6139520158       23.4474972509
 Cl        19.3511399632       37.5335312756       31.5304708813
 Cl        19.6222527812       37.3243514831       39.0921148484
 Cl        19.0355148911       42.4230268105       15.5302891639
 Cl        19.4039665937       41.9852872593       23.5237055582
 Cl        18.9731144707       42.0601384293       31.6840031407
 Cl        18.7115146253       42.1608081030       39.0349554899
 Cl        19.7129522469       52.8826659592       23.3802792989
 Cl        18.1953938209       52.7821218615       32.6869993516
  S        30.2852968486       37.9577219968       12.6162243320
  S        30.1520614550       37.7222942346       20.6955058026
  S        30.1671499950       37.7333129883       28.7639708038
  S        30.2934624515       37.4573448861       36.8479069142
 Pb        18.6972397381       40.0604027657       12.6709388175
 Pb        19.2591248203       39.7859077817       20.4815363406
 Pb        19.2392935076       39.8518806148       28.5324678407
 Pb        19.0458528675       39.8319703814       36.5918741753
  S        30.4082554616       36.7168612587       44.4591474307
  S        29.8818969467       41.8957963956       12.8850081864
  S        29.8960133088       41.8411067382       20.7747536708
  S        30.1613836923       41.8503467780       28.8287835744
  S        30.1877421412       41.5633475477       36.8554461567
  S        30.0592856466       53.3357872492       21.0843928310
 Pb        20.4657269579       47.7359823988       11.2835022186
 Pb        19.7151475338       47.4055180504       18.8771039421
 Pb        19.9008222227       47.3761793044       26.7819936562
 Pb        19.6961537650       47.3766436341       34.8786229890
  S        30.2488025674       53.6215847062       28.5641025932
 Pb        41.8763922295       44.9148176098       17.9841437966
 Pb        41.3556319897       44.6214069463       25.9047644468
 Pb        35.3687258147       40.1182611400       12.5828499328
 Pb        35.3649835976       40.0447160034       20.4270091067
 Pb        29.1023758139       39.9695458110        7.0778307430
 Pb        30.1532919285       39.8252937595       14.7848112979
 Pb        30.0781017223       39.6191938286       22.9560529349
 Pb        30.1565167465       39.6303312422       30.9980352532
 Pb        30.2793814514       39.4074463357       38.9443049609
 Pb        30.9852608380       54.7612874859       23.1818548440
 Pb        31.0937665435       55.0587664408       30.7332258285
  S        20.0846917413       45.7754453322       16.6507094989
  S        20.0182762122       45.2701381259       24.7831428361
  S        20.0070177856       45.2957021725       32.6611646120
  S        19.9325394273       45.2444252728       40.8391555145
  S        20.1367468521       49.8086177563       16.5947429765
  S        19.8126828050       49.5161063121       24.7997949852
  S        19.8330033326       49.4621240355       32.7370277937
 Pb        35.4448017093       39.7744572435       28.4426846567
 Pb        35.5672853132       39.5627625662       36.4444273936
 Pb        41.2915988855       43.8097179782       33.7714436253
  S        20.4684007983       39.8961869635        9.6502053729
  S        20.6961527633       39.8859563616       17.8314433791
  S        20.7545587687       39.7210425336       26.0528787346
  S        20.5464984906       39.7660165438       34.1674996049
  S        19.1724278820       39.5400298222       42.2977931092
  S        20.8349935497       55.2521786871       25.9520429937
  S        42.8338162492       45.8831293829       20.3170831799
 Cl        42.7775547013       44.6886367758       28.3828953650
 Cl        40.8081815754       37.4136141220       15.2103970908
 Pb        35.9361850620       47.6520598642       18.9190911451
 Pb        30.7878646485       47.8348261005       16.1547270054
 Pb        30.7420792251       47.4921460868       24.5183970260
 Pb        30.9415440713       47.4927219529       32.6487172203
 Pb        31.6820679865       47.1304541270       40.5581225659
 Pb        20.0894771325       37.2626336323       10.3544787990
 Pb        20.5652738428       36.9169297682       18.2407861407
 Pb        20.6043971859       36.9393313402       26.3909848464
 Pb        20.5249632519       37.0258862372       34.3212843296
 Pb        20.0964094944       36.8875665792       41.9314798431
 Pb        19.6849891585       42.5210854471       10.1922147875
 Pb        20.4815517488       42.6703955204       18.3947035716
 Pb        20.6402315123       42.6551133525       26.2931667123
 Pb        20.8458085557       43.0891697988       34.2062828406
 Pb        19.4225217730       42.0819093430       41.6799403119
 Pb        21.0640716511       51.7327814503       18.3585225317
 Pb        20.1650704152       52.4645674495       26.2106900309
 Pb        20.0235356047       51.5962095672       34.3421389291
 Pb        36.0050494000       47.3669406085       26.9270169923
 Pb        36.1948254057       47.1239205665       35.1812977883
 Cl        39.3537463915       36.8695704783       24.1081134252
 Cl        39.7678632095       37.5299016462       32.2663988314
 Cl        39.5627475969       36.2819240972       39.7930618111
 Cl        40.1540611043       43.5338419128       15.0833739299
 Cl        38.9972243454       42.4117785052       24.5473173007
 Cl        39.5171338601       41.9541637065       32.6340936553
  S        45.6033185920       39.8703168121       19.3385527956
  S        41.6866505125       47.3394443044       26.0184963319
 Pb        21.0033099827       44.0966516159       14.4454610132
 Pb        21.1195002662       44.5625014991       22.2977250561
 Pb        21.2189998372       44.5151179706       30.2124690306
 Pb        20.9493396202       44.1170359351       38.4521705862
 Pb        21.2935402719       50.5556041203       14.3398221144
 Pb        21.2004198569       50.2269934149       22.5434670687
 Pb        21.5033433192       50.1701287469       30.2767794946
 Pb        20.7884573971       49.8021533216       38.2063055152
  S        44.5164048952       41.2123451088       22.7565423903
 Pb        39.1376962902       40.0450505051       10.1951594585
  S        37.1747513510       45.8113279195       17.0425658066
 Cl        31.6156419534       44.5524528757       10.6466662661
 Cl        30.6367338466       45.1504439789       19.4400971286
 Cl        30.7022783743       45.2009705958       27.5603513322
  S        21.8572846499       47.9949089596       13.6385422872
  S        21.2668303147       47.4390592080       21.9238154576
  S        21.4115827734       47.3838062289       29.9335285670
  S        20.9683699402       47.2139521612       37.7217077511
 Cl        31.2678219399       44.8010032271       35.8586185977
 Cl        30.8838887687       49.9162375396       19.5186995108
 Cl        30.8338658395       49.8809859275       27.6165195193
 Cl        30.1416048800       50.1111999890       36.1024396222
  S        35.9159228849       45.3726351730       24.8949333089
  S        36.1644000813       45.0867061745       32.7904772909
  S        35.9688876461       49.4767720526       16.7585001296
  S        36.0010821826       49.5601598892       24.7303110597
  S        21.9211408585       37.8104590394       12.6458013796
  S        22.1093695604       37.7468793247       20.7003357641
  S        22.1260587941       37.6922006253       28.8583319289
  S        22.2992615396       37.6446308431       36.7611332539
  S        21.7536372595       42.1749677818       12.4350080957
  S        21.9826259996       41.8451448927       20.7442691335
  S        22.0394692887       41.7930971095       28.8824583535
  S        22.1893191681       41.6463469338       36.9861604553
  S        22.4110610858       53.0402390882       20.8329801251
  S        22.3988966649       53.0565464307       28.9068882363
  S        36.4375755863       49.1525613748       33.0111880572
 Pb        39.2354002309       40.5980292923       19.5348368751
 Pb        39.7802659198       39.8798859573       27.1666614931
 Cl        31.1500078030       38.2961534097        8.1656276862
 Pb        21.7883181413       39.7138521251       14.7978481062
 Pb        22.0266635579       39.6877338653       22.9560700637
 Pb        22.0952023651       39.6885962656       30.9487972413
 Pb        22.2120264038       39.5485429388       38.8712258628
 Pb        21.9274763476       54.7049423818       23.1581871954
 Pb        22.1482431538       54.5939315597       31.1022446021
 Cl        31.4342572082       37.3638046803       16.3207022219
 Cl        31.3370364405       37.5142746458       24.5403919828
 Cl        31.5327771603       37.6491667393       32.6131153056
 Cl        31.5629879812       37.3286047705       40.6370286239
 Cl        34.3957819156       42.7803253767        7.4771623914
 Cl        31.1650833775       42.1016447572       16.6590052575
 Pb        22.5408939019       47.4060215308       16.3983222605
 Pb        22.5514778426       47.2969339500       24.4915663375
 Pb        22.6083517196       47.2756042995       32.4635964153
 Pb        22.2664161377       46.8014202238       41.0303351280
 Cl        31.1615276700       42.1244444143       24.5614208341
 Cl        30.9659473426       42.2855802812       32.4561060653
 Cl        31.1506042474       43.3217360029       40.3065299476
 Cl        30.8421889475       52.1660605955       16.0752603326
 Cl        30.9332858673       52.5222348380       24.8324841569
 Cl        31.6545326246       52.8612574317       32.2280553067
 Pb        39.3829710891       39.4262110076       34.9451534079
  S        36.8384868364       39.5230814817        8.7447174344
  S        36.8432785824       40.3514774733       17.9159994426
  S        36.7576439576       39.8097516845       25.8580583549
 Pb        31.0548407512       40.1555589627       11.0400324352
 Pb        31.2823222210       39.9549698868       19.2641465796
 Pb        31.3179303021       39.7811181259       27.2475285947
 Cl        19.2337605672       45.6611861041       12.5447640227
 Cl        22.7780868537       45.2739196199       19.2404715816
 Cl        22.9701734123       44.9975068618       27.4450061029
 Cl        22.8222708683       44.9014917519       35.2966354105
 Cl        22.6456868250       49.7168291340       19.3418129647
 Cl        22.7864030561       49.6702022289       27.5090112908
 Cl        22.6263775758       50.5416382101       36.0061878417
 Pb        31.6041066771       39.5320313048       35.4634431301
 Pb        32.2021006208       38.6477709349       43.1323828503
 Pb        32.2591086887       54.7994505691       27.0891968007
  S        36.8835499948       39.4068919436       33.9315620495
  S        37.7790410882       39.1701553546       41.5291016973
  S        44.1393531982       39.5298018914       15.6742539209
 Cl        44.1560954473       37.3314733375       22.0325521797
 Cl        23.4329584112       37.4363662438        8.3703154513
 Cl        23.3550484180       37.8583141061       16.3480541500
 Cl        23.4900656060       37.6727678290       24.5744996506
 Cl        23.3636829425       37.6319826578       32.7583610578
 Cl        23.3055221038       38.9773183903       42.1406054471
 Cl        21.0715160143       45.4691864393        9.1461388154
 Cl        22.8619462166       42.5305698041       16.1895117161
 Cl        23.2916617734       42.0009950347       24.6747679308
 Cl        23.1886832745       42.0989726614       32.7212411594
 Cl        21.9955491038       42.2323077366       40.7249063450
 Cl        23.0759371924       53.1277367326       16.9477850633
 Cl        23.4122929378       52.9332342479       24.8512495412
 Cl        22.3680998023       52.4192087050       32.7062477424
 Cl        42.4453470181       35.0653256956       31.4997501411
  S        41.8808315005       38.8768557347       18.6462590157
 Pb        31.7156421792       47.1810195622       12.7953358671
 Pb        31.9639811229       47.5222663769       20.8073101912
 Pb        22.7768992483       39.9439058453       10.9727535441
 Pb        23.1561780183       39.8247168629       19.1699376322
 Pb        23.2566444552       39.7982871977       27.3203167630
 Pb        23.1455175364       39.7499153694       35.1007727011
 Pb        24.6556899790       39.4878025935       44.3367751971
 Pb        24.0462959401       54.8651299050       19.6420580077
 Pb        23.0897725661       54.9666341550       27.0291486519
 Pb        32.0934863306       47.2606550285       28.9439157915
 Pb        32.2192243909       47.6030951897       37.0248488673
 Pb        39.9695379627       47.3224335645       20.8725093363
 Pb        40.1728378261       47.4086011547       29.1741862072
 Pb        36.5097873935       37.1959881061       10.0381814460