    1212
 i =      121, E =    -28109.6931163727
 Cl        13.7993985528       22.6667810753       29.0571859094
 Cl        13.6978045090       18.6077604798       29.2467163627
 Cl        16.6322282114       27.0504464368       22.4049725726
 Cl        19.2241628530       29.4757286824       24.1591718688
 Cl        12.9527585597       21.2700692259       25.1329339004
 Cl        16.4539508352       23.5194783175       26.0209352546
 Cl        19.8020417092       21.4447076878       25.9915830770
 Cl        19.6945472135       25.4509772597       24.5433129373
 Cl        16.8157554217       19.0805390566       24.1145638679
 Cl        16.5427818509       16.2437208270       28.2170252330
 Cl        10.4662850352       12.6509099112       32.2241825245
 Cl        13.1345845563       15.1610782198       34.4695468610
 Cl        13.6351220965       14.6000185180       30.6568758317
 Cl        13.1980450125       17.1164986673       25.4401541856
 Cl        16.1453005194       13.2653485783       33.1213633906
 Cl        19.1418591433       14.9696302814       31.1415573198
 Cl        13.7345052469       11.1290963836       35.3428456498
 Cl        24.6008556210       18.4079698040       31.1695361354
 Cl        24.2874728289       15.7831897389       35.5029438360
 Cl        25.0768353293       22.1428004463       29.5858367735
 Cl        24.3855726612       16.1204244959       39.4921153957
 Cl        27.7542056039       24.5482494147       27.6591843137
 Cl        29.9471603248       22.3033057528       30.1003129788
 Cs        22.7526913564       28.9145574115       13.7057282164
 Cl        20.1102732632       27.0875476156       12.0684251985
 Cl        11.8266878900       24.7944267414       14.0153129105
 Cl        24.9411091744       22.1600427275       25.6186356771
 Cl        24.1833073113       26.2019324004       25.4767023646
 Cl        19.7864678472       21.1737956584       21.8728562774
 Cl        22.6763269953       19.2028111486       24.0656922777
 Cl        25.3880138739       24.7510622981       22.0214261395
 Cl        22.4379065416       27.5515943288       21.9332835513
 Cl        30.6133866898       25.3459584223       25.4345081451
 Cl        29.2290372385       16.4142175263       39.8026369662
 Cl        14.8568285816       19.7592128595       17.0047969178
 Cl        21.8716962025       13.0787475648       33.6174924202
 Cl        24.8161744619       11.8946429682       36.5921892871
 Cl        31.1153202547       18.1742953794       27.5161201833
 Cl        28.1560064133       16.2548570351       29.4221996192
 Cl        25.2481079664       18.1732817974       26.9777044869
 Cl        27.4877480832       13.8281179231       34.3275625900
 Cl        31.6987678088       18.6753427656       31.3400969495
 Cl        29.8700334496       16.1576731057       36.2489955191
 Cs        29.2329810642       25.9411676377       12.4260215739
 Cl        29.7860121041       12.2746154258       37.3519200479
 Pb        31.7105478345       27.0726970176       15.8465674688
 Cl        35.9855068553       18.4222089521       28.3771062278
 Cl        33.1222713756       13.9249352439       35.2527754472
 Cl        23.3844912940       38.4565064948       26.7098962095
 Cs        12.6445625225       21.6079792454       14.7428731596
 Cs        29.0252383726       23.2039266812       16.6665751334
 Cl        19.6641385284       37.2790653285       22.5499454795
 Cl        21.5247991155       40.4726348350       24.3066276328
 Cl        24.0912631391       34.0183513358       23.5769519551
 Pb        31.6191790974       23.4067075834       20.4768085304
 Cl        24.7743142172       38.0940771344       22.9952365388
 Cl        20.8584699081       44.4689503308       26.9749932647
 Cs        17.8008718943       24.4807676673       10.9777100646
 Cl        19.1543458617       33.3515018886       22.8694953278
 Cl        13.1617351482       37.8718542646       25.4734108223
 Cl        16.5529228908       35.1898101147       20.5759052028
 Cl        24.7854194041       30.0527160278       24.3459659445
 Cl        19.2763763857       29.2129567036       20.1218121117
 Cl        23.6088603133       36.1348724428       19.7375541593
 Cl        26.2365128604       33.0535184991       20.1492998263
 Cl        30.9634548741       33.2097271503       20.1478297499
 Cl        27.9854892038       27.6894055510       23.7020707168
 Cl        15.2832060476       22.6669569684       12.6901211824
 Cs        33.6570418617       27.3865343324       19.8678056904
 Cl        20.1632318891       22.9667984712       12.9221045112
 Cl        15.1851074484       44.1752152450       26.4780760090
 Cl        12.5260116463       42.6084689442       28.6549101126
 Cl        12.3053652965       46.5093308085       27.9751168904
 Cl        17.3387896613       46.9523572474       28.2187835873
 Cs        10.7665295146       35.5777081749       23.8352086808
 Pb        12.9197009382       31.6991866301       24.7784836293
 Pb        12.5935892269       36.4464688679       27.8783293692
 Cs        16.4488667214       30.9145778173       21.4537523290
 Cs        10.3763280787       40.0602082526       26.9112391372
 Cs        15.3366094988       40.4334319657       27.2877724648
 Cs         9.7540684687       44.4264533225       29.5439104209
 Pb        18.8893556876       12.9278398669       33.4444543289
 Pb        18.0339025895       44.7019482107       26.5414999481
 Cs        29.0810000317       19.6987368633       20.3776686939
 Pb        19.3021448371       16.0229487052       28.4916505068
 Cs        22.2704439962       20.2238119913       28.2585169274
 Pb        18.5648743076       39.7725310301       23.5338157783
 Cs        11.5318642041       30.6078723572       20.3899331424
 Pb        13.6033159085       26.9161872771       21.5971793702
 Cs        11.6227052300       22.6446449670       22.0087099078
 Pb        13.4785281603       15.8141048557       28.0998061289
 Pb        19.4138359536       27.2408840125       22.2126976980
 Cs        17.0669686899       26.3180396484       18.0312191898
 Cs        16.8828870688       23.3945175004       22.5190754185
 Pb        13.7705771313       18.9240149850       23.3361380435
 Pb        19.5854397312       19.0556280856       23.9822031629
 Cs        17.3127657882       18.9124834862       20.1211322631
 Cs        16.2999766713       15.5482819207       24.7279704351
 Cs        16.4769621006       12.6956385349       29.5700713914
 Cs        11.5633862126       12.1907692255       29.0702651220
 Pb        13.1383699874       12.5216043863       33.0324877582
 Cs        17.6537524272       21.9146107228       15.3436126329
 Cs        16.2570664229        9.7025998385       33.6435377238
 Cs        21.6556286912       12.5986081709       30.1220703817
 Pb        25.0973284469       16.0906357027       29.1338307965
 Pb        24.6886566248       13.0049176517       34.0451100641
 Cs        28.0603683058       23.2996244109       24.1339951521
 Pb        30.4809955104       24.4038906203       28.3042555969
 Cs        33.1636519768       20.7123816846       29.0116815574
 Pb        25.4258128814       19.3460526758       24.3209721985
 Pb        24.9780649458       27.3332088974       22.9474106700
 Pb        20.1123199707       22.3238465335       19.1715720941
 Cs        22.5278526924       18.9419466151       20.5473120555
 Cs        22.9308600635       15.7401884842       25.2879021213
 Pb        25.8244297605       22.6289996602       19.8365922904
 Cs        22.5349527737       26.3305308965       18.4950677211
 Pb        30.6942909437       27.7532223901       24.3181481134
 Cs        32.0400536421       14.7667517407       38.5815200866
 Cs        12.4775098071       18.3982688227       19.2884098613
 Cs        27.6706000588       10.2438151109       35.4075376709
 Cs        28.1600953208       16.2102064632       25.7364507631
 Cs        33.8395348839       16.5499257735       26.2309938782
 Pb        31.1869789523       19.6519375788       24.9460853884
 Pb        30.9920162241       16.4471474119       29.8779625426
 Cs        27.8924561057       12.8531632492       31.0288470987
 Pb        30.3487922958       13.4897947066       34.9075944194
 Pb        20.3671335225       25.3432269803       14.2595392989
 Cs        33.2590219944       12.7660687081       32.0050239699
 Pb        24.2221998735       40.3658488901       24.5685441197
 Pb        19.2515644401       35.3003624111       20.4391950269
 Cs        21.8501140762       39.1412238444       20.6968977675
 Cs        20.7797436395       43.7417192441       23.4277771244
 Pb        25.5599853417       35.3728272843       21.5770555376
 Cs        27.0560281227       40.0201334174       21.1952840170
 Cs        17.3263976314       28.7814815098       13.4720102354
 Pb        12.7885264822       39.5452824768       22.9487305730
 Cs        16.6771892038       33.9376598391       16.7258674020
 Cs        15.7018362325       38.4314785772       19.4704770672
 Pb        13.3878406783       34.7755229209       19.8861164812
 Pb        20.0606017350       30.4617308554       17.3828072894
 Cs        22.7603149363       34.0576983505       16.9970644704
 Pb        25.4363340140       30.6958436623       18.3564318529
 Cs        28.3459632603       34.4711323920       17.8681731900
 Cs        28.4524283254       30.1562389717       14.9133570070
 Cs        28.4011063513       26.6134060393       19.7886881457
 Pb        32.2770213374       31.7347487896       18.2496740020
 Cs        14.9458426645       47.4875628515       25.6122414140
 Cs        15.4530183991       43.1990152264       22.9594768700
 Pb        12.2614666754       44.2926447884       26.1837713879
 Cl        12.7703414539       37.2385169277       21.2661370344
 Cl        13.3395560737       33.3722658481       22.5025046331
 Cl        10.0692745468       39.5501039206       23.3902739938
 Cl        14.3761637993       32.3013634463       18.8028541875
 Cl        17.4535496835       30.5059945399       16.5526188111
 Cl        14.4508452734       28.5549644669       19.3777718943
 Cl         9.5083292532       43.5263007679       26.1711135532
 Cl        12.8899183612       41.6977743771       24.9172348886
 Cl        18.0794943532       42.0996931516       25.1652820783
 Cl        18.8548812134       10.8361458161       31.5725440819
 Cl        18.4543357107       11.5655532348       35.8121215034
 Cl        17.8159005835       45.8759994881       24.0271335030
 Cl        19.6278728271       16.7597653454       25.6471634482
 Cl        19.3938424449       13.4297617522       27.5968327035
 Cl        22.3449908965       15.9869379698       28.7404564727
 Cl        15.9262395867       39.4564553972       22.8123298889
 Cl        19.1305832773       41.4185171554       21.3716665462
 Cl        10.8465667636       33.9673536604       19.3920239977
 Cl        11.5925582437       30.0759650585       16.9175680674
 Cl        11.0360254134       27.0050166829       20.6750343473
 Cl        14.1253082683       24.5921328278       20.0921080645
 Cl        11.6456058646       21.6750744547       18.2508054624
 Cl        14.5416982402       20.8386364130       21.1848988444
 Cl        14.0768086815       13.3400432926       26.9432589998
 Cl        10.7305834541       15.7380707038       28.4734757346
 Cl        19.6274829836       25.1231530808       20.3810607425
 Cl        14.7011757630       27.6514975477       15.4774923127
 Cl        14.7030048084       23.8588359218       16.3639484145
 Cl        17.5781715654       25.3832970352       14.5235114186
 Cl        20.3263290623       27.9029576039       16.2034163687
 Cl        17.3327288549       22.4622654570       18.8772288740
 Cl        14.6429176868       16.9491785234       21.5360879556
 Cl        11.2264104501       19.1562996849       22.3079430409
 Cl        19.8055379946       17.2736305361       21.8984142155
 Cl        20.1197491778       19.8270494024       18.0353281103
 Cl        13.9694097865       10.5911495489       31.1191169253
 Cl        24.7679775175       14.2805542692       31.2589494672
 Cl        25.5812820200       14.1945650159       27.2205771376
 Cl        25.6682942203       10.7714235748       32.7467783701
 Cl        28.6354243975       23.1753763309       20.4475775400
 Cl        31.1762753783       22.1083844288       26.5616767518
 Pb        14.4016063360       22.1039387679       18.5444846629
 Cl        34.5768249518       20.3213761812       25.5513428250
 Cl        25.8530007543       20.3057403416       21.6222704357
 Cl        28.4458943973       19.7195308875       25.0221871076
 Cl        25.7014725814       16.8098960215       23.3546238550
 Cl        25.9525862969       28.8565761855       20.6044702303
 Cl        20.6456730978       23.6444633615       16.7191237850
 Cl        23.0670820425       22.2204284975       19.3778125516
 Cl        25.8044341883       24.7230865198       17.8576648788
 Cl        26.6512793113       20.8734695450       17.8541402781
 Cl        31.2644701709       26.1973500414       22.0016908257
 Cl        34.1116074388       30.7851227262       20.7911359231
 Cs        34.0496519784       23.5283182226       16.9464341765
 Cl        30.3833439365       11.2252846412       33.2153645351
 Cl        33.1249843527       14.7467539225       29.0960621142
 Cl        31.2536771630       17.0605816715       23.9128326344
 Cl        31.2216064293       21.3508154948       22.6586499500
 Cl        30.6742389120       14.9736091170       32.2519586981
 Cl        24.1692061787       41.6867597672       22.1228690912
 Cl        34.3533387686       23.9559134141       20.5140335220
 Cl        19.6460731966       33.3415345777       18.3685528880
 Cl        19.1080560780       37.3743429054       18.6799102673
 Cl        27.9015577035       36.8676807061       20.2582679389
 Cl        12.9577068972       41.5361037094       21.0195441321
 Cl        14.4554007919       32.0729172052       14.7549165426
 Cl        13.9395735973       36.0057007668       17.3980396909
 Cl        21.0841049319       31.6431693678       15.0950920247
 Cl        22.8704498625       31.2044055064       18.8666510743
 Cl        25.9713301334       32.5379383909       16.2509692007
 Cl        24.7462763943       28.6726627071       16.6187032029
 Cl        30.6875618832       32.6105687478       16.2948878399
 Cl        28.7101555236       26.8978691600       16.1752707430
 Cl        30.9739366358       29.4427951541       18.4218169641
 Cl        31.3472313347       25.2579893319       18.3684960186
 Cl        15.3703072484       26.7370938413       11.4170001614
 Cl        12.7082577643       45.5356494706       23.6921350658
 Cs        10.3365373539       42.9789496471       22.7371339705
 Cs        11.7207333379       33.4944002980       16.1249164048
 Cs        19.4500232116       33.0517749432       49.0321160616
 Cl        20.0830824313       31.9381324732       46.0011854185
 Cl        17.1799679297       30.5677237726       48.1954723230
 Cl        16.7121899754       34.2824739360       47.6619258308
 Pb        17.2508665908       32.1863244542       45.7945270350
 Cs        20.1162725823       30.9439510019       42.1620290978
 Cs        19.6408508108       28.5248896544       46.5205537122
 Pb        14.3449992807       30.1510945802       16.7753605820
 Cs        14.4235844954       28.1844054892       45.7239154497
 Cs        14.0396951639       32.3619464491       48.7220364451
 Cl        14.4029302821       31.8699364643       45.3572171982
 Cl        17.2018197510       29.8085112562       43.9494474602
 Cl        17.2154045613       34.2461557279       43.6707438965
 Cl        17.9479067354       28.3247670874       40.1191847862
 Cl        20.3937572399       27.6615248208       43.2693256273
 Cl        17.6930173565       32.5994898519       40.0966421396
 Cl        20.7238232296       30.6543751186       38.6340042670
 Cl        22.8179763156       28.6681129555       40.6586034268
 Cl        17.3803531692       26.1742582971       45.4609332418
 Cl        26.4503930696       27.9696815323       13.0291622427
 Cl        21.1426911809       36.5022086890       39.9760265756
 Cl        14.7006565927       26.9832135378       42.2138427238
 Cl        11.9061509519       29.4680289062       43.6075168036
 Cl        11.9612573315       25.7689409804       44.8131939619
 Cl        11.8694701788       29.8303086543       47.6784155733
 Cl        11.6141481727       34.1966539485       46.8740751058
 Cs        14.5269936999       31.1136651982       41.6574794999
 Cs        14.0489571215       35.4095528267       44.5220210110
 Pb        11.4550303772       31.6655397144       45.5414063540
 Pb        17.4278648623       27.1341434559       42.8139372927
 Pb        17.0688877720       35.3287047360       41.1277866657
 Pb        17.6694619711       30.3605055248       38.1812464337
 Cs        15.3362889623       26.3076151560       38.3970353514
 Cs        20.7903830845       26.7399843316       38.5870271408
 Cs        20.4730020711       24.2909241707       44.0724700287
 Pb        23.2645002869       27.9002223888       43.4904683212
 Cs        20.1770211333       33.9563296275       37.6604595663
 Cs        20.8431218364       29.3721581155       34.2431331509
 Pb        23.5525874513       30.6024830322       38.7544385026
 Cs        25.4802807431       26.5404571202       39.8597621447
 Cs        14.2648300142       23.3256379736       42.8260994043
 Cs        18.9607516260       39.3057766796       40.3636633893
 Pb        11.5241665667       26.8690530634       42.2855929974
 Cs         9.2984345243       30.7169053820       41.5466340025
 Cs         9.4558243845       27.9997876484       45.8627600836
 Cs         9.0964393074       34.9530281292       44.5104089864
 Cl        14.9317257514       29.9878600896       38.2573892781
 Cl        11.3974831077       32.3602032597       39.1454342038
 Cl        14.4667270810       34.8406117620       40.6126084372
 Cl        11.7573738620       33.1540519146       42.9692657666
 Cl        11.4157951166       36.9470786528       42.6246168432
 Cl        16.3222210344       37.8688921996       42.0591870664
 Cl         8.6911252448       31.4523638389       45.0728769427
 Cl        17.6294573227       24.3327571711       42.1761588853
 Cl        17.7193515306       36.5195675417       38.4760837146
 Cl        18.1028359344       28.2998438798       36.2360701971
 Cl        17.3662485809       32.2769272382       35.8954149569
 Cl        12.6004074990       28.0404562387       35.5440471159
 Cl        15.5731700047       25.4670141473       34.6863474321
 Cl        12.6961997472       24.3264670224       37.0955758084
 Cl        15.3799063455       22.6616714093       39.4610305978
 Cl        18.3697720067       24.3810637877       37.5930411966
 Cl        21.2832764883       25.6829542791       35.2150026491
 Cl        21.0249498786       22.1290208459       41.3899756298
 Cl        23.9272949319       28.3276883261       37.1679205746
 Cl        23.2480269968       23.9177406991       38.5238705333
 Cl        23.4932095561       25.1318958770       42.4505600926
 Cl        25.9530257677       21.2426645568       43.5356404009
 Cl        22.7509674623       26.5631178968       45.9459120893
 Cl        23.3361108358       25.5734765405       14.6281425652
 Cl        20.5015119338       34.5299840718       34.3003884635
 Cl        20.9305494901       39.0542337296       36.3145038325
 Cl        34.4149332098       26.8888671677       16.5497276836
 Cl        18.7538540545       31.1338750377       32.0540943457
 Cl        23.3540612623       31.5827714218       32.3138216050
 Cl        23.5804762832       27.5955373969       33.0847994035
 Cl        22.6979700887       31.9165062359       35.9737927481
 Cl        26.9294519311       23.9108918673       14.0019859737
 Cl        11.4446585970       24.3189819233       40.9658291574
 Cl        17.2638279492       40.8346074288       37.8216912130
 Cl         8.8467877391       27.3027122541       42.6194246576
 Cl        11.0835022354       28.2840965700       39.5623783605
 Cl         8.5435156548       34.2947353368       41.1812085151
 Cs        15.4253937258       29.5946273094       34.0290998527
 Pb        11.8211471773       30.0406581242       37.4564433687
 Cs         9.6200049500       33.7468186393       36.3013245026
 Pb        11.1585133140       34.8022931050       40.7669169405
 Cs        14.6400702549       34.4353377207       36.8462655646
 Cs        13.4582690982       38.3887219700       40.0934133419
 Pb        14.5433424775       25.2531701666       13.6403339322
 Pb        18.1029382317       22.4132624333       40.0577715860
 Pb        17.4108435047       38.3467439781       36.3694241433
 Pb        18.4555735494       25.5845002909       35.0215916901
 Pb        17.8294346724       33.5482775135       33.3234606751
 Cs         9.9530506171       28.6427490887       33.3562935793
 Cs         9.6182926664       25.4759358855       38.0911299912
 Pb        12.6198905886       25.3444513180       34.4824612937
 Cs        15.8507674559       24.9963454682       30.8933735649
 Cs        10.4348469786       21.1940349593       34.8297330846
 Cs        15.7613996788       21.7334849506       35.3857623434
 Pb        12.2831564080       22.1964611552       39.1463947349
 Cs        15.2722136788       18.8261354905       39.5095892572
 Cs        21.2152382524       22.0673106418       35.8986713397
 Pb        25.0295002857       25.9906866365       35.1792207965
 Cs        21.4911676436       25.0710203306       31.4837961716
 Pb        23.7786614550       22.5590700024       40.7596707744
 Cs        20.3111499806       18.7226691439       40.5308308046
 Cs        25.4573168376       30.0818796856       34.6716016833
 Cs        26.8780138885       21.6505187159       36.0208560732
 Cs        25.5721540358       24.5752368369       45.1236327394
 Pb        23.1951478281       33.9337744828       34.1049127369
 Cs        20.1217405960       37.6041314132       32.7872691533
 Cs        19.4759613106       42.5054484490       35.7056898688
 Pb        18.4319948283       28.7976190764       30.2083215560
 Cs        20.9153344544       32.6465630600       29.5521558893
 Pb        24.2353497636       28.9533255265       30.6841799011
 Cs        25.5401559646       33.1637960632       30.2273730589
 Cs        14.4785488483       41.4726358776       35.3964444476
 Cl        15.2217467185       33.0857086794       32.4323565742
 Cl        15.6593619433       29.0692222163       30.4342036570
 Cl        12.5559574980       31.9713213202       35.2905985371
 Cl         9.2807280439       30.1728556979       36.4637541590
 Cl        12.4114536282       35.6983947593       34.1758564927
 Cl         9.4375590920       33.6734914937       32.7989222877
 Cl         9.0578206561       38.0124432632       34.9589281786
 Cl        11.3940882952       36.2837341571       38.1439579850
 Cl        17.0553670411       36.1573589051       34.4840217403
 Cl        14.7110742851       38.2250555632       36.7201536647
 Cl        11.5357955861       40.5943197422       37.0667074705
 Cl        18.5705347348       20.4376672701       37.9676009619
 Cl        17.4935692052       20.3933240701       41.7715348132
 Cl        17.5320116694       40.1503597790       34.0660144805
 Cl        18.6699235419       23.1310613399       33.6444513631
 Cl        18.5639262025       27.0051873236       32.4065014455
 Cl        18.3330552300       35.0367596299       30.8882716282
 Cl        11.6059680821       30.7916662051       31.1449845233
 Cl        10.1102447831       27.7626432601       29.1640729287
 Cl         9.7996454229       25.1959540082       34.4439836943
 Cl        12.7059735388       26.7219701213       31.8658788568
 Cl         9.6661955184       21.8448105255       38.2835816011
 Cl        12.9729945349       22.8563954115       33.0905987589
 Cl        13.6663039176       26.4318244000       27.8501657408
 Cl        18.3365070947       26.6559958869       28.3126793065
 Cl        18.3289658079       22.8042076819       29.5556909512
 Cl        10.0016683338       17.8197968429       35.8260339193
 Cl        10.4848766519       20.7829042535       30.5303446642
 Cl        12.9706712850       20.2586606018       37.1446068666
 Cl        12.6395845991       18.7938096883       33.1817927500
 Cl        16.1689968030       20.3635636444       31.9810733242
 Cl        15.8285432921       17.9794602174       35.8193030230
 Cl        19.5515335766       19.2894451930       34.0544052879
 Cl        12.4452796916       20.2905120192       41.1650413992
 Cl        12.9215618844       16.4059741948       38.4692662417
 Cl        17.8180879735       16.4755802849       38.8850737473
 Cl        21.8712330870       21.5028207507       31.6885317882
 Cl        24.0552578435       19.7912946542       34.8549332732
 Cl        24.7278590666       23.6032019139       33.7734525121
 Cs        33.5112010810       23.6584206222       24.3378070133
 Cl        21.9597613215       24.0130041021       27.9295661289
 Cl        21.4513734556       28.6466077067       30.1571158271
 Cl        24.7471014740       26.4605082457       29.5426818796
 Cl        23.6489758517       19.9586961942       39.5886752526
 Cs        12.0723221262       26.2728288637       17.3096222886
 Cl        21.2673422797       17.1464618279       37.6110955466
 Cs        23.8856940109       22.3682651073       15.8178414133
 Cl        27.5820243386       20.8126734800       32.4424691525
 Cl        26.8956050057       18.4250064636       37.4783484267
 Cl        29.6659115894       19.5182831369       35.0257800441
 Cl        31.6548557109       24.6331638639       14.5859521431
 Cl        22.7946836174       35.2330514163       31.3292121812
 Cl        31.1898092915       28.4898670742       13.5436261806
 Cl        20.8347307304       37.9290889348       29.4176003704
 Cl        21.4013199887       41.4350208369       32.7595159589
 Cl        18.3849869400       44.1679891503       32.8357750415
 Cl        18.4369293897       30.6025353222       27.9120003000
 Cl        18.7083295317       34.5035783608       26.9404369786
 Cl        21.6669983915       32.0998050903       25.8028219248
 Cl        23.7234394605       34.8453408576       27.7703481650
 Cl        23.9901879832       30.5396550208       28.1888411700
 Pb        26.0243064701       26.2572651737       15.2046756937
 Cl        31.6393377110       21.4674253386       18.5103270120
 Cl        15.1338050439       42.2441204792       31.9486776207
 Cl        12.3333594174       39.4974158790       33.4261618538
 Cs        15.4975499138       32.5108075054       28.8772816852
 Cs        14.8885351424       36.9303129201       31.8427864048
 Pb        12.1333430608       33.1806157958       32.7153385198
 Pb        12.7069349137       28.4897001665       29.6345602555
 Cs        10.0352809852       37.0665331646       31.7122456552
 Pb        11.6309817697       38.0311312803       35.8841094184
 Cs         9.4455329985       41.3751285703       34.3939441715
 Pb        18.5208781501       17.7807307383       36.5517659535
 Pb        17.7651809930       41.6953569994       31.6435649006
 Pb        18.9033226945       20.8271312629       31.7581791854
 Pb        18.1685160359       36.8239176691       28.6122189066
 Cs        10.3205898313       32.5727494505       28.2999002441
 Cs        10.9784252404       27.4010225081       25.7393429823
 Cs        10.7977478895       24.2925054413       30.1765174928
 Cs        10.2349187974       18.4669598493       39.1904431863
 Pb        13.1826670681       20.6293208389       31.1338701043
 Cs        16.1501574443       28.0504408685       25.8559024708
 Pb        13.3554805541       23.7457876381       26.4390026623
 Pb        18.9912160255       23.9355358861       27.0423078666
 Cs        16.5164086659       20.1827151328       27.7217069133
 Cs        10.7087404167       16.1113731145       32.0727835684
 Pb        12.7680684024       17.5229991587       35.9330376040
 Cs        10.9780351304       19.2888896403       27.2680279313
 Cs        15.8753643571       16.8214809203       32.3277482777
 Cs        15.6708625278       13.9958335042       36.6142971636
 Cs        21.7036542120       16.8158544422       32.8503936627
 Pb        24.4997270308       20.9543048521       32.3072678145
 Pb        23.9154474148       17.8483837090       37.4228502760
 Cs        27.2322715482       24.3514637850       31.3528222779
 Pb        24.6823421874       24.1556298021       27.5823190425
 Cs        22.2109431599       23.2283664884       23.6406188127
 Cs        21.3542224620       28.0611035378       26.6679739002
 Cs        26.7632577942       28.0970198296       27.0490640650
 Cs        26.4491954907       18.4285988858       41.0439636199
 Cs        21.3982426381       13.6770136225       37.0116436496
 Cs        27.7335775390       20.0081131422       28.7596028513
 Cs        27.0339085455       17.3892756838       33.7786045129
 Pb        30.4086441142       21.2344805805       32.9088482282
 Cs        26.9539002993       14.5477079632       37.7819635670
 Pb        29.6633852104       18.4576780979       37.9308310682
 Cs        32.5028092407       17.3981177766       34.3951320374
 Pb        23.5150477524       37.1629089558       29.3919480772
 Cs        21.3866179526       35.7661814006       25.1303501472
 Cs        20.4754509510       40.8336204940       27.6167062312
 Cs        19.8592795781       45.6596532761       30.1010471495
 Pb        18.8067999540       32.0072772414       25.3929788150
 Cs        15.9337806895       35.5673581925       24.4322755920
 Pb        24.6057306779       32.2312982203       26.0492033746
 Cs        21.8960367857       31.1271955485       22.2557495522