    1042
 i =       84, E =    -11396.6699897106
  S        41.4951615107       25.1137688686       28.0588942604
 Pb        44.9672582066       25.5471520871       36.2829059856
  S        46.2897472326       25.8573963609       39.0961705328
 Pb        47.3620353104       25.9015685994       41.8040751963
 Cl        25.4493004939       26.6322759379       44.1818932590
 Pb        43.8629314209       34.4573768035       32.7660166488
  S        45.2374614479       34.6612982517       35.5589642993
 Cl        48.3622980612       26.3369140345       44.6467511592
  S        24.1977083272       29.2291962386       41.1632063078
 Pb        25.2630267683       29.4369312362       43.5048700843
 Pb        46.3248570804       34.8560389757       38.2724448626
 Cl        47.4142699568       34.9866812370       41.0981767938
  S        47.0877808176       24.5853367933       25.5693790389
 Cl        36.9114601686       36.1696643290       16.0433623182
 Cl        25.5264345642       32.3597496073       43.6967158838
 Pb        37.9613715804       36.2978591030       18.5063108635
  S        39.3641059816       36.5907241726       21.4474110934
 Pb        40.3147447710       36.7118822898       24.0957254682
 Cl        24.1850512202       34.5423463280       40.3896410542
  S        41.9263876502       27.2581752750       21.0664381366
  S        41.7516892911       37.0617904220       26.9743216657
 Pb        42.7789259509       37.2096918166       29.7194646960
 Cl        22.8998881601       37.7056107384       37.8095594272
 Pb        42.7891959272       27.7420701859       23.9871077892
  S        44.2672512499       27.8645466741       26.6169579500
 Cl        53.1996806145       25.1848943353       32.5766618701
 Pb        42.4342052956       25.1937510075       30.7556990545
 Pb        49.8718890199       36.3309380246       23.3668856707
  S        37.9833614650       27.2864280651       19.5510722332
 Pb        38.6238876833       27.4494181213       22.2600335086
 Cl        28.2153680981       23.1961417937       43.2298106713
 Pb        52.1329817969       30.9252715028       29.3947468790
  S        43.9140869810       25.4441282568       33.5753319100
  S        40.3151439179       27.8435248510       25.0762428012
 Pb        41.1812225560       27.9913528649       27.7815993959
  S        42.7231435170       28.3205405839       30.5873295798
  S        26.9432846089       26.0814565145       40.5014288627
 Pb        27.9746801337       26.2950953955       42.9901886998
 Cl        29.5877442671       26.7416471056       45.9024373284
  S        44.0981404230       37.4675830844       32.5151564966
 Pb        45.2022661594       37.6581772877       35.2507426058
 Pb        43.6879291249       28.4650200191       33.2589768895
  S        25.6634669829       28.6158837623       37.1142623782
 Pb        26.5172633608       28.8873934370       39.7303557575
  S        28.2442794595       29.3075239526       42.9820314872
 Pb        29.3933412600       29.5607124511       45.4380912386
 Cl        46.2697151492       37.7799920433       38.0458219821
 Pb        41.5256108176       24.5040565684       21.5519578640
 Pb        44.2855101313       36.7637342765       25.7917187035
 Cl        38.0785931423       39.2871065049       18.5591662305
  S        27.1578111699       32.1068610350       39.8021568103
 Pb        28.0075972314       32.3788771188       42.3962092608
 Cl        29.6001653291       32.4277318285       45.3147430634
 Pb        39.2226462385       39.4548449942       21.0698050570
  S        40.5988456306       39.8149062313       23.9503531960
 Pb        41.5695277505       39.8820070284       26.6786893256
  S        25.8898115001       34.9357021211       36.6708658132
 Pb        26.7456413355       34.9150505800       39.3715226264
 Cl        28.2953291583       35.2618332661       42.1868103782
 Pb        45.2410373786       28.1155191304       29.4064883731
  S        42.9643518344       40.3100855894       29.4611568252
 Pb        44.0404690853       40.4233528884       32.2151401571
  S        24.6773058216       37.5479504372       33.7469235398
 Pb        25.3817256714       37.6798344072       36.5920800764
 Cl        27.1142050885       38.0199498050       39.1328450329
  S        46.6870274007       28.2474964715       32.1796225241
 Pb        47.7019543188       28.4820206377       34.8392446253
 Pb        49.6786252668       24.7063014538       24.5914616664
 Cs        26.5346709952       18.4099093700       15.0129015306
 Pb        24.4115631088       40.1820064448       33.3144825917
 Cl        25.8335162529       40.8516910929       35.7740361514
  S        49.2768603103       28.6559085182       37.7410972146
 Pb        50.1069234111       28.8623211848       40.3996635373
 Cl        53.3844736619       30.9072465371       32.2055784726
 Pb        48.5461513609       27.4420124848       21.6477361764
  S        45.7152534141       37.1309847814       28.5201469187
  S        45.1757544906       28.6560054779       36.1000232937
 Pb        46.1173013208       28.8192312304       38.7520631818
  S        47.6288775702       29.0404741300       41.6840914093
 Cl        30.9810928475       20.3145912688       42.3819474120
 Pb        48.6447142644       33.0821494302       21.0759675103
  S        49.6820880059       27.4573665894       24.2051360737
 Pb        46.7588672745       37.2968995093       31.3136852967
 Pb        48.3960744037       29.1835197976       44.3751914070
  S        36.7390414419       30.2186236528       16.5933187911
 Pb        37.5473785066       30.1177622428       19.1351462734
  S        29.9018025689       23.0635821574       39.5006310895
 Pb        30.8212328025       23.2002385556       42.0510354729
 Cl        32.2939461329       23.5404964980       45.0106577117
  S        49.7640329940       33.5823119263       23.5705184656
 Cl        47.8997574634       37.3695535629       34.0481098343
  S        39.1099290369       30.6164119401       22.1123937018
 Pb        40.0422982219       30.7160037984       24.7236044422
  S        41.5814236538       31.0750177638       27.5880764203
  S        28.3942132717       25.5329850341       36.4552437012
 Pb        29.3522594770       25.8086335263       39.0644619801
  S        31.0644988025       26.2764080420       42.0774922752
 Pb        32.1000631208       26.3873063282       44.6966920755
 Cl        33.5446339590       26.8308567464       47.5353818196
 Cl        45.1165752726       40.5901907271       35.0068068774
  S        43.0003614926       24.5132907228       23.9969444417
 Pb        42.5776720735       31.2186858808       30.2616688687
  S        27.1142358904       28.2203111869       33.5474049798
 Pb        28.1149991710       28.5216544325       35.9797351821
  S        29.8563944205       29.0233207057       39.0090368095
 Pb        30.8193681069       29.2004275848       41.5129520488
  S        32.2598007124       29.4934629575       44.7649523994
 Pb        33.4785916486       29.6754290812       47.2016735783
 Cl        40.8938569768       35.9064451892       17.6172338343
 Cl        39.2455802465       42.5211321258       21.0391613490
 Pb        40.4747534224       42.6932679097       23.5283308124
  S        41.8828074746       43.1378043229       26.3506376035
  S        28.5641758838       31.7647562101       35.8956872473
 Pb        29.5600405754       31.9140803451       38.4853841019
  S        31.1508112886       32.2727852116       41.5610276525
 Pb        32.1558178746       32.5188202497       44.1751924666
 Cl        33.6192483521       32.5487988715       47.0482008683
 Pb        42.9476757004       43.2189629311       29.2035781124
 Cl        43.9630199968       43.4088963089       31.9450263893
 Pb        43.9769886055       24.9839834877       26.9812063902
  S        27.5070733350       34.6372028310       32.9427801815
 Pb        28.3947628050       34.6186192103       35.5720785346
  S        29.9422973935       35.0744786688       38.4920201817
 Pb        30.8712508915       35.2196371338       41.1484661440
 Cl        32.4249007516       35.3984900505       43.9398434705
  S        40.7049478739       30.0905050662       18.3098228957
 Pb        41.9238153183       36.3275701620       20.1906365973
 Cl        40.4651440544       45.7335528664       23.5307349772
  S        26.4506061201       37.3013998076       29.8008302054
 Pb        27.2586749383       37.3083018365       32.5841134166
  S        28.7754162332       37.8932880077       35.4019691014
 Pb        29.6560814858       37.9455788471       38.1441455842
 Cl        31.2262726917       38.1815256487       40.8580854101
 Pb        41.6942818712       30.3520118982       20.8530917729
  S        43.1041267363       30.6234508184       23.7641249109
  S        50.7791375149       24.9919784955       27.2507864791
 Cs        29.5986675069       14.1853660734       22.3395857208
 Pb        26.3476324274       39.9740720602       29.4444886883
  S        27.7810356588       40.7775320429       32.2457863165
 Pb        28.5551508058       40.6702681994       35.1156033981
 Cl        30.0434790655       40.9936188902       37.7427218542
 Pb        44.0876728453       30.8746657626       26.4027328692
  S        45.5090999161       31.1650974091       29.2071416849
 Pb        51.0173671516       33.6307639561       26.4455384112
 Pb        51.9474892200       25.0426520345       29.7994962386
 Cl        26.5974779513       43.4402289778       29.3874388202
 Pb        27.8519226120       43.4346504566       32.0462275929
 Cl        28.9539803714       43.8423917589       34.6706054395
 Pb        46.5485615760       31.3332254843       31.8525222828
  S        48.0102622474       31.4458004278       34.6770820997
 Cl        52.2066434362       33.7880799562       29.0783161453
 Pb        48.0784713091       24.8300262740       28.3928634868
 Pb        49.0517444511       31.7436638416       37.3644084018
 Pb        31.5605864746       15.8243338942       26.1684844838
 Pb        32.7481678679       17.0966339733       38.7927739061
 Cl        33.6962350388       16.9914443478       41.3746260424
  S        49.4816839960       24.9249865128       31.1091166110
 Cl        50.1873118845       31.7281361962       40.2215128675
  S        44.0237399893       31.4646968607       33.0949927768
 Pb        45.0692974126       31.6637606997       35.7718452260
  S        32.6974054115       19.7781779990       38.8185241729
 Pb        33.5890903223       20.1020334762       41.4607785591
 Cl        35.2580816808       20.4338972013       44.2022245054
 Pb        50.5332549796       25.1519724658       33.9271410613
 Pb        53.2528943011       28.0549592439       32.3638143206
  S        46.4018615540       31.8465162613       38.6386688775
 Pb        47.5009168594       32.0946663135       41.3137382860
  S        31.2850122088       22.7600338490       35.7029236379
 Pb        32.2845838335       22.9208433731       38.2356838018
  S        33.9066085510       23.0626585416       41.2612278639
 Pb        34.8740528900       23.3098500267       43.9258923316
 Cl        36.4373667963       23.6399589690       46.6602165362
 Cl        51.6848298703       25.6017463604       36.5990316422
 Cl        42.0594286231       39.2704271879       20.0746199949
 Cl        48.4640180125       32.0681294375       44.2127676407
 Pb        36.7377335246       32.7860594680       16.3778690860
  S        30.0775709825       25.3743796661       32.4422380781
 Pb        30.8640080790       25.5067469773       35.1481870374
  S        32.6133711485       25.9062626238       38.1527964721
 Pb        33.5630529162       26.0839419707       40.7662939982
  S        35.1523409144       26.3769787247       43.7539278708
 Pb        36.1515369248       26.4741640467       46.4316728222
 Cl        37.6321215029       26.8784424614       49.1678118439
 Pb        43.1877373831       39.5320457683       22.6895403553
 Pb        41.5649464098       45.9203971367       26.1492754240
  S        38.1696867688       33.3307250541       18.9150246128
  S        28.4787634726       28.0124145456       29.5360380793
 Pb        29.4360316928       28.2324644655       32.0828750109
  S        31.3849199826       28.7052164485       35.0694733817
 Pb        32.3066083268       28.8486712392       37.6679260104
  S        33.9089166014       29.1233732046       40.6994509823
 Pb        34.9309995299       29.3245721062       43.2450141824
  S        36.2598535918       29.5862486887       46.4146389027
 Pb        37.5775837065       29.7235019522       48.8544163762
 Cl        42.7000038881       46.2145672675       28.8084178475
  S        45.3237386050       25.2182880514       29.6236984201
 Cl        48.6088243273       24.4874293409       21.8831329761
 Pb        50.8267419253       27.7334211976       26.9878543929
  S        30.1371587075       31.4661847412       32.0498239989
 Pb        31.0315938877       31.5691673203       34.6797385698
  S        32.7523250098       31.9491161813       37.6274036236
 Pb        33.6547071837       32.1332161673       40.2574105524
  S        35.2187265313       32.3531165845       43.2454048988
 Pb        36.2074715429       32.6323018911       45.9106621445
 Cl        37.7039541001       32.6027266964       48.6797661946
 Cl        44.6023721589       24.3968013033       20.1903847704
 Pb        43.9264744546       18.9805875503       27.6264585344
  S        45.1276309597       19.2382498928       30.0536369361
  S        29.0603069418       34.2201269155       29.0518313791
 Pb        29.9725279088       34.2716772477       31.7118334148
  S        31.5771739394       34.7567423147       34.5772921571
 Pb        32.4584178598       34.8431338403       37.2571738459
  S        34.0077056712       35.1585624680       40.1521207223
 Pb        34.9913337737       35.3448203112       42.8320108997
 Cl        36.4317272235       35.5118040119       45.6058172313
 Pb        46.4025423089       25.3625002373       32.3364197997
 Pb        46.2726162162       19.3486199692       32.6797830009
 Cl        47.5438682928       19.5114423651       35.3921464161
  S        28.1984148659       37.1518604012       25.9120808760
 Pb        29.0043329070       36.9938256586       28.6404395511
  S        30.4451319897       37.5513608967       31.5313875625
 Pb        31.3265144040       37.5833774349       34.2733449686
  S        32.8435501895       37.9772523790       37.0916267176
 Pb        33.7787441991       38.1027003853       39.8197575329
 Cl        35.2554386409       38.2671063565       42.5414166532
  S        47.8536721305       25.4565191661       35.1226138742
 Pb        47.0606209594       33.6260551090       24.9387544833
 Cs        27.7198250369       13.8371866588       27.3400513472
 Pb        28.1418004501       39.7916698141       25.6331151873
  S        29.3153955873       40.3851765348       28.4063128280
 Pb        30.3779282039       40.2819905343       31.2059502344
  S        31.7102190342       40.8259133677       34.0019206023
 Pb        32.6413419445       40.8412058121       36.7978431469
 Cl        34.0807891465       41.0687244165       39.4769371873
 Pb        48.9127267709       25.6026578792       37.8547141434
  S        48.4607003790       33.9855859364       27.4626769966
 Cl        28.4211376948       43.2787023818       25.4075884655
 Pb        29.2600740448       43.1981341659       28.1283674879
  S        30.5087118866       43.7113775508       30.9631624109
 Pb        31.6494888870       43.6641501587       33.8299785539
 Cl        32.9647066773       43.9008103707       36.4331129610
 Cl        50.0679183149       25.9952735215       40.6499753017
 Pb        49.4756661340       34.1472919231       30.4256324092
 Cl        29.6886717948       46.3633345857       27.9791595997
 Pb        30.7612984517       46.4428861724       30.6212394461
 Cl        31.9292333052       46.7494132328       33.2655840977
 Pb        40.3462927345       27.4330186294       18.5067811541
 Cl        50.6301474430       34.2389175675       33.0276454373
 Pb        44.4902668431       27.3612516851       20.0521218511
  S        44.6555437545       40.0025845424       25.4066949601
 Pb        34.2114877327       16.7172504341       34.9859114389
  S        35.5675398622       16.9688904460       37.9440956357
 Pb        36.7547800126       17.1283896466       40.3535400109
  S        45.9235833931       27.3921829866       22.5340829785
 Pb        45.6559329261       40.0502544888       28.3326886728
 Pb        38.9490550778       33.3847016476       21.7659508643
  S        34.0562513795       19.4349052004       34.9744371424
 Pb        35.1686339756       19.8867592729       37.4565229226
  S        36.6668032375       19.9434960973       40.5568991092
 Pb        37.8274998631       20.3174029826       42.9904046692
 Pb        46.8880020145       27.7515571312       25.4753068425
 Cl        46.7766892265       40.2026601656       30.9942710435
  S        40.4615702402       33.8195279379       24.4912418904
  S        32.7717447167       22.4461693632       31.8689312396
 Pb        33.6985695166       22.6194881543       34.4121426967
  S        35.4823675913       22.9065321525       37.3351294648
 Pb        36.4187830901       23.0868076988       39.9101863252
  S        37.8934213867       23.1360378991       42.9964210223
 Pb        39.0725707918       23.5084466758       45.4423929543
  S        48.3174538083       28.0128991495       28.1196005259
 Pb        40.6223563783       32.8910362320       17.9370279502
 Pb        41.3839988613       33.9364285860       27.2584710819
  S        31.4837371395       24.9955870702       28.7978656867
 Pb        32.5947315185       25.3789418956       31.3317899944
  S        34.1320795166       25.5690398537       34.2900237608
 Pb        35.1083007137       25.8103279950       36.8780595851
  S        36.6708854516       26.0162162175       39.8471981476
 Pb        37.6639833252       26.2850191512       42.4138057364
  S        39.0893221136       26.3218786612       45.4652271918
 Pb        40.2816939623       26.7514104133       47.9303925515
  S        42.0673275719       33.2925632753       20.4179923546
  S        42.8669758527       34.3074398578       30.0201155980
  S        30.1155494748       27.6374739689       25.5769255379
 Pb        30.9060488616       27.8038074336       28.2726612288
  S        32.9037134153       28.4045910855       31.1825845622
 Pb        33.8294052643       28.5358995753       33.8245587939
  S        35.4882154731       28.8545942734       36.7534950076
 Pb        36.4445354175       29.0263033281       39.3601412217
  S        37.8689196692       29.2199129438       42.3267307341
 Pb        38.9716865285       29.5047959716       44.9471300577
  S        40.1446677488       29.4972346935       47.8069735825
  S        43.3197459799       36.6074748709       23.0311706812
  S        52.1209730532       27.8078227509       29.8626728958
 Pb        45.6887326335       24.3352906648       22.7757045960
  S        31.7826640578       31.1482678629       28.1800952614
 Pb        32.6083131819       31.2498561353       30.8239771254
  S        34.3056434440       31.6157013241       33.7291120001
 Pb        35.2411833621       31.7672650274       36.3624331015
  S        36.7798132808       32.0485102103       39.3032402548
 Pb        37.7409818276       32.2604773964       41.9013564688
  S        39.1893635043       32.4020566339       44.9715700285
 Pb        40.3180902151       32.6310135848       47.4738232749
 Pb        42.6737090667       21.7705352878       24.5025563331
  S        44.2105509298       21.8007317257       26.9162112364
  S        30.7011016891       33.9444235120       25.0532148848
 Pb        31.5439268332       33.9038860410       27.7947010106
  S        33.1535596258       34.3998270463       30.6722044260
 Pb        34.0745173852       34.4677346573       33.3690528092
  S        35.6180907447       34.8670133484       36.2401697881
 Pb        36.5466476016       35.0036934614       38.9108999232
  S        38.0377553944       35.2571731781       41.8283132532
 Pb        39.0226157520       35.4925818114       44.4908610955
 Cl        40.4127356046       35.4560254840       47.3080882308
 Pb        45.2112026927       22.0714172515       29.8486442401
  S        29.6710260568       36.8283416676       22.1302686199
 Pb        30.6925498581       36.7364977322       24.7700199786
  S        32.1055257997       37.2071220362       27.6651005038
 Pb        33.0110384282       37.2016995747       30.3773061643
  S        34.4847955890       37.6611394589       33.2102171020
 Pb        35.4012058887       37.7370063454       35.9283958171
  S        36.8875936956       38.0793195264       38.7693560663
 Pb        37.8465583839       38.2328693044       41.4721258515
 Cl        39.2893179404       38.3454122791       44.2462750501
 Pb        42.9766451666       33.5557891071       23.4053059168
 Pb        29.7991313673       39.4176951414       21.6012497103
  S        30.9773052926       40.1082082687       24.6776888735
 Pb        32.0116567860       39.9386033184       27.3930312646
  S        33.4037977355       40.4366007052       30.1762364441
 Pb        34.3362995531       40.4439963477       32.9308893928
  S        35.7379474859       40.9070092792       35.7162109076
 Pb        36.6951808250       40.9808805075       38.4739161605
 Cl        38.1401199741       41.1762364327       41.1675570895
 Cl        44.8158755554       35.9828017648       19.1667996824
 Pb        31.1971188246       42.7631579617       24.3639900304
  S        32.1043857468       43.3258315592       27.0053535087
 Pb        33.3410283672       43.2349998212       29.9211061794
  S        34.5295639495       43.7892941633       32.5759034590
 Pb        35.6140176871       43.7488412586       35.4772171588
 Cl        36.9483635693       44.0196509926       38.0577706496
 Pb        45.9070627295       36.4079023635       21.6954868150
 Pb        32.3933541611       46.0636070448       26.8872728797
  S        33.2909832332       46.3486156688       29.4834079511
 Pb        34.6216821644       46.5232991283       32.3200497599
 Cl        35.7635301138       46.8215692739       34.9185450199
  S        47.3574451130       36.8094185076       24.5132933216
 Pb        49.3165511199       28.1601627422       30.8672481443
 Cl        51.0607238228       36.6292602259       25.9630079834
  S        36.7042717225       16.6448123864       33.9495666030
 Pb        37.9698375277       16.8888400018       36.4554558126
  S        39.3219362887       17.1216480132       39.2671317056
  S        50.8274099000       28.2950655900       33.7677945935
  S        48.6165764374       30.2852655008       21.5001259157
  S        35.7586688159       19.4043528761       30.8514079565
 Pb        36.5797975111       19.4609759406       33.5463359608
  S        38.2225795092       19.6794209901       36.2715103015
 Pb        39.2730334130       19.9177470361       39.1440210254
  S        40.5379277725       20.3254125980       41.7250274941
 Pb        51.7305411950       28.4754234212       36.4013331707
 Cl        43.2915925924       42.5713685134       22.6200009659
  S        34.5722720933       22.1318555586       27.9010320480
 Pb        35.2624992027       22.2133777035       30.6231333568
  S        36.9891805136       22.6117507728       33.3600910886
 Pb        37.9610988649       22.7773579015       36.0252453192
  S        39.4619026613       23.0602121711       38.7739777508
 Pb        40.5077519075       23.1066802963       41.5889982147
  S        41.7394776535       23.5252450203       44.2575717751
  S        44.6343560499       30.1778594039       19.8712279533
 Pb        44.4193773957       42.7820797978       25.2460398190
  S        33.2211376829       24.7762668438       24.9828738891
 Pb        34.0226353031       25.0019734382       27.6316803535
  S        35.8105328102       25.3357276499       30.3424595754
 Pb        36.6872837210       25.4615941913       33.0459197767
  S        38.2707181229       25.7457690834       35.8244128917
 Pb        39.2737087024       25.8829815788       38.5507651532
  S        40.6819580928       26.3078449820       41.2697746332
 Pb        41.7381387288       26.2655193993       44.0702767340
  S        42.9347292027       26.8285611405       46.7501015751
 Cl        45.5630703476       43.0600472089       27.8841659456
  S        31.9770871387       27.3567224406       21.7485106895
 Pb        32.6120952215       27.6395473355       24.4647442222
  S        34.5237156979       28.0409021644       27.3132087986
 Pb        35.4190379842       28.2430694450       29.9880264176
  S        37.0845635000       28.5426933527       32.8431643177
 Pb        38.0195081833       28.6944929504       35.4940848914
  S        39.5437443618       29.0232196816       38.3655565816
 Pb        40.5041340389       29.1136122156       40.9893805742
  S        41.9113980253       29.5367902245       43.9885673678
 Pb        42.9224727264       29.4901423728       46.5600108183
  S        46.6357268729       22.1337188527       32.4858843234
 Pb        47.6768220670       22.4328215990       35.3609518809
  S        33.3977531960       30.7496058802       24.2885287460
 Pb        34.2450816757       30.9101537450       26.9339778712
  S        35.9109253697       31.2763125114       29.8336898232
 Pb        36.8435220372       31.4271803993       32.5081998044
  S        38.3882018723       31.7500324047       35.3560545063
 Pb        39.3691615326       31.9032987305       38.0409739492
  S        40.7868294561       32.2670888368       40.8360898272
 Pb        41.8412565452       32.3738351847       43.6043680941
  S        43.0357005255       32.8266207014       46.2774210657
 Cl        48.8283977315       22.7055091981       38.0272295984
  S        32.5257633493       33.5566379759       21.1847140491
 Pb        33.2307807822       33.5908937376       23.8934943593
  S        34.7921564799       34.0039522189       26.8142620750
 Pb        35.6877204641       34.1203066005       29.4921471069
  S        37.2498891754       34.5133095676       32.3510030440
 Pb        38.1806081815       34.6333439926       35.0213930094
  S        39.6618469258       35.0288075014       37.8868358813
 Pb        40.6445312440       35.0702157302       40.5321614685
  S        42.0125399842       35.6143840269       43.5056560982
 Pb        43.0631068311       35.4988227790       46.1074097481
  S        31.3688514755       36.0311954974       18.1604191106
 Pb        32.1711902973       36.3706028666       20.8331415026
  S        33.8014982553       36.7257400372       23.7630897841
 Pb        34.6641762580       36.8600076957       26.4320342504
  S        36.1479951102       37.2751938968       29.3312564866
 Pb        37.0794209649       37.3913317048       32.0253340364
  S        38.5344223555       37.7653089841       34.8902129266
 Pb        39.4928145213       37.8484736474       37.5351916597
  S        40.8881046569       38.3653454356       40.5247692732
 Pb        41.9203234451       38.3454472588       43.0935148014
 Pb        48.4190368399       36.9593326744       27.3637056935
  S        32.6408098542       39.5083429997       20.8701332112
 Pb        33.6115234878       39.6372931515       23.4093258035
  S        35.0656415635       39.9732278876       26.3724164697
 Pb        36.0039649179       40.0692072426       29.0098557660
  S        37.4297064105       40.4730035865       31.8871672396
 Pb        38.3634054796       40.5882889998       34.5171828575
  S        39.7444010622       41.1285050570       37.5163624397
 Pb        40.7736543209       41.1128636937       40.0900877663
 Cl        49.5362937293       36.9511630785       30.0960451794
  S        33.8944851977       42.7155592122       23.4098554319
 Pb        34.9070896111       42.8998799362       25.9287477725
  S        36.2628409986       43.3946621555       28.8952264225
 Pb        37.2975051528       43.4296621745       31.5444546767
  S        38.6194748259       43.8597861088       34.5099319181
 Pb        39.6394170366       43.8673318444       37.0681014768
  S        44.3828494085       33.9013443027       26.0349775861
  S        35.1578262162       45.9119123945       25.9867124925
 Pb        36.1238102605       46.1243396235       28.4543601671
  S        37.5066163151       46.3705086329       31.5128721153
 Pb        38.5030297971       46.6231261792       33.9780998915
 Pb        45.4199965665       34.0578760223       28.8857883821
 Pb        45.7624150266       30.4136583681       22.3516744415
  S        46.8276461960       34.2741531224       31.5664087518
 Pb        39.7450268488       16.5291304444       32.7150200750
  S        40.9825915425       16.7310206879       35.3198829257
 Pb        41.7841980296       16.9120791371       38.0043634049
  S        47.2279575752       30.6849540758       25.2205524515
 Pb        47.8999936140       34.4992368069       34.3561179213
 Pb        38.1586807580       19.2996628832       29.8634219576
  S        39.5469536295       19.2727601707       32.3908727429
 Pb        40.6826886107       19.6888283537       35.0795481047
  S        42.1611732775       19.7014043085       38.0067730291
 Pb        43.0274339494       20.0696479948       40.6619468721
 Pb        48.2656323632       30.9348223140       27.9218556261
 Cl        49.0538408774       34.5998934856       37.0745661463
 Pb        36.9440695948       21.9990690573       26.6825751870
  S        38.4980021644       22.0360404679       29.4444542567
 Pb        39.4836345447       22.4790976160       32.1456846612
  S        41.0267455236       22.6569867468       34.9472729604