    1042
 i =      181, E =    -10964.9271247448
  S        41.7056115731       25.1386695150       28.1073357733
 Pb        45.1511750841       25.5935914780       36.3424876714
  S        46.4598778597       25.9085873972       39.1638139242
 Pb        47.5195021615       25.9596263518       41.8773797838
 Cl        25.2947667498       26.2191175443       43.6662609824
 Pb        43.9935344782       34.4876133736       32.8310011200
  S        45.3557791316       34.6989157388       35.6295853993
 Cl        48.5003874702       26.3982308498       44.7249033572
  S        24.0211183579       28.9440173639       40.6587955331
 Pb        24.5649348356       29.1370118072       43.2090436422
 Pb        46.4300848367       34.9009752983       38.3484872443
 Cl        47.5044561158       35.0416266857       41.1785556944
  S        47.3205626568       24.6496546243       25.6441111206
 Cl        37.2039225896       36.1934286268       16.0641308229
 Cl        25.5121094267       31.9088689593       43.5750292203
 Pb        38.1982046902       36.3278967064       18.5521802241
  S        39.5528542442       36.6154301788       21.4985169403
 Pb        40.4833633342       36.7336365689       24.1521132147
 Cl        24.2800842910       34.5138951941       40.5397840238
  S        42.1604051775       27.2927667573       21.1182620810
  S        41.9007066227       37.0878003805       27.0358141042
 Pb        42.9125886667       37.2360365323       29.7859591973
 Cl        22.9952823371       37.6362957297       37.9502956853
 Pb        43.0014559198       27.7793638288       24.0466049693
  S        44.4648919468       27.9072654526       26.6802920406
 Cl        53.4004985850       25.2859839654       32.6768429543
 Pb        42.6352234442       25.2237750063       30.8045616952
 Pb        50.0455217206       36.4104973287       23.4675776110
  S        38.2225825276       27.3109641747       19.5867054121
 Pb        38.8488455140       27.4591722360       22.2983220296
 Cl        28.3228879341       23.0789346434       43.3333365966
 Pb        52.3078322967       31.0178978606       29.4978827655
  S        44.1080203914       25.4815057428       33.6330597124
  S        40.5181093496       27.8638521776       25.1229176855
 Pb        41.3622919963       28.0106216166       27.8325526113
  S        42.9017904676       28.3494915771       30.6400466506
  S        27.1987029657       26.1395240405       40.4347585735
 Pb        28.1002412009       26.3211734504       42.9243775178
 Cl        29.7246535725       26.6666827123       45.9109212511
  S        44.2150141027       37.4977917531       32.5869097227
 Pb        45.3061719799       37.6937698458       35.3275320743
 Pb        43.8557286904       28.4997841793       33.3137358506
  S        25.8576464413       28.5486325469       37.1864553725
 Pb        26.6680842652       28.8574010405       39.7452558787
  S        28.5181691139       29.2347906899       42.9712752150
 Pb        29.5443392116       29.4926157001       45.4309799209
 Cl        46.3585245158       37.8248533679       38.1257515503
 Pb        41.7811085469       24.5353499953       21.5984418767
 Pb        44.4441086389       36.8046330848       25.8696512288
 Cl        38.2955052061       39.3182643018       18.6027219017
  S        27.2599994489       32.0560124863       39.7892202007
 Pb        28.0530942618       32.1927858620       42.4119268201
 Cl        29.6950743023       32.3792232356       45.2986260170
 Pb        39.4166236933       39.4810022227       21.1283618618
  S        40.7573451209       39.8431072956       24.0128788912
 Pb        41.7141677522       39.9069053364       26.7474359337
  S        25.9311887960       34.8784019819       36.6881171186
 Pb        26.8317035006       34.8420537240       39.4146716355
 Cl        28.3453026048       35.1353744841       42.1943555391
 Pb        45.4279425862       28.1632126259       29.4728714955
  S        43.0888272899       40.3396121402       29.5330786490
 Pb        44.1501248169       40.4516326329       32.2941599508
  S        24.8054315036       37.5266400389       33.8553400794
 Pb        25.4986713562       37.6377458020       36.6729229392
 Cl        27.2506095316       37.9414170213       39.1968105198
  S        46.8654491373       28.3038220399       32.2509028440
 Pb        47.8702887359       28.5431586263       34.9146101494
 Pb        49.9155778859       24.7876112972       24.6776999261
 Pb        24.5380730212       40.1811208035       33.4645613842
 Cl        26.0012134436       40.8086021344       35.8954977258
  S        49.4328490855       28.7279800424       37.8256252881
 Pb        50.2490941082       28.9391363576       40.4879851477
 Cl        53.5449211885       31.0099886038       32.3117445335
 Pb        48.7755042603       27.5180252648       21.7318324060
  S        45.8558668790       37.1770143096       28.6017727378
  S        45.3386771048       28.6956572106       36.1626898557
 Pb        46.2673578091       28.8678513671       38.8187361038
  S        47.7633421604       29.0977732574       41.7612294696
 Cl        31.2396326102       20.2856843580       42.4673390088
 Pb        48.8442215257       33.1578371711       21.1669353910
  S        49.8966991077       27.5391836741       24.2952232473
 Pb        46.8854407428       37.3456443545       31.4003435361
 Pb        48.5164030692       29.2452696002       44.4562522048
  S        37.0308767387       30.2597479745       16.6032524421
 Pb        37.7734823273       30.1379059808       19.1695832466
  S        30.0244705938       22.9763530236       39.4349608456
 Pb        30.8874604276       23.1500617370       42.0514219897
 Cl        32.4039720744       23.4681562178       44.9480386945
  S        49.9465826213       33.6611722510       23.6683260789
 Cl        48.0102021498       37.4296792198       34.1388228241
  S        39.3124114907       30.6349379380       22.1523198238
 Pb        40.2267392375       30.7339602117       24.7699955143
  S        41.7518203119       31.0981250217       27.6402843559
  S        28.5670258099       25.4833281932       36.5201420079
 Pb        29.5927939488       25.8296662526       39.0946502158
  S        31.1928397220       26.1861316737       42.0835414289
 Pb        32.2200044786       26.3250399277       44.7041034271
 Cl        33.6685080862       26.7740412393       47.5381264743
 Cl        45.2101469129       40.6248570436       35.0890626258
  S        43.2416069870       24.5519704202       24.0514605906
 Pb        42.7356436154       31.2452138299       30.3168439273
  S        27.1939650765       28.0755047736       33.5906254547
 Pb        28.2815854845       28.4407815181       36.0447504496
  S        29.9730761985       28.9790204002       38.9756373826
 Pb        30.9667935085       29.1447091589       41.5193569163
  S        32.4121663933       29.4341366819       44.7546386650
 Pb        33.5902885936       29.6231164245       47.2028814102
 Cl        41.1264958518       35.9378278193       17.6740315293
 Cl        39.4292421672       42.5470110487       21.0959738409
 Pb        40.6379835414       42.7225920548       23.5954866753
  S        42.0238892636       43.1675471826       26.4258149056
  S        28.6885585966       31.6951037719       35.8660483216
 Pb        29.6663311513       31.8605467758       38.4691272094
  S        31.2433664219       32.2020935592       41.5580081376
 Pb        32.2472948689       32.4594778995       44.1767836942
 Cl        33.7004422708       32.4984872145       47.0518738864
 Pb        43.0720156878       43.2475559688       29.2853483005
 Cl        44.0693054723       43.4360191796       32.0328893625
 Pb        44.1958021511       25.0263940717       27.0410890725
  S        27.6769765254       34.6180054282       32.9351259689
 Pb        28.4714502964       34.5553339732       35.5832268857
  S        30.0287855224       35.0127445673       38.4991689924
 Pb        30.9254327722       35.1366632955       41.1729143634
 Cl        32.4974768957       35.3397662584       43.9433501085
  S        40.9232503265       30.1255167618       18.3676822551
 Pb        42.1260332730       36.3631110780       20.2609903005
 Cl        40.6158807790       45.7646078994       23.6044927107
  S        26.5878374635       37.3308086257       29.8101517795
 Pb        27.3673616767       37.2855446771       32.6188184118
  S        28.8792716534       37.8388176201       35.4242297380
 Pb        29.7747751995       37.8817700260       38.1697291990
 Cl        31.3071448070       38.1073960557       40.8834309276
 Pb        41.9094080699       30.3863319772       20.9122816190
  S        43.2965546673       30.6617088461       23.8274781491
  S        51.0013204522       25.0783042662       27.3415069151
 Pb        26.5249699710       40.0284833462       29.4969209186
  S        27.9034687299       40.7616503320       32.2756196270
 Pb        28.6972022370       40.6240681060       35.1560679993
 Cl        30.1464149295       40.9405376054       37.7752879498
 Pb        44.2672860404       30.9151017394       26.4709575389
  S        45.6755213623       31.2128246799       29.2785964715
 Pb        51.1884754336       33.7163358899       26.5480219034
 Pb        52.1633547628       25.1363753188       29.8941941980
 Cl        26.7752566645       43.4670121932       29.4162340866
 Pb        27.9856004154       43.4202890195       32.0924829168
 Cl        29.0756140996       43.8008496378       34.7227622564
 Pb        46.7047668783       31.3850676079       31.9283451762
  S        48.1558995976       31.5089019397       34.7576714384
 Cl        52.3614584740       33.8818670818       29.1863513974
 Pb        48.2994148334       24.8998036704       28.4708318790
 Pb        49.1847460582       31.8126371064       37.4504155730
 Pb        33.0463838388       17.0415882938       38.8805063117
 Cl        33.9704100693       16.9632587932       41.4368570762
  S        49.6926968234       25.0025783979       31.1931350730
 Cl        50.3069719057       31.8052452473       40.3105769990
  S        44.1722857072       31.4981768343       33.1572099302
 Pb        45.2078587885       31.7038662245       35.8372378611
  S        32.9469023293       19.7235650123       38.8275168096
 Pb        33.8196249808       20.0955795283       41.4800338769
 Cl        35.4533860353       20.4068435320       44.2167872494
 Pb        50.7317150723       25.2365445159       34.0152353049
 Pb        53.4373779710       28.1560714817       32.4660655251
  S        46.5273993253       31.8949035534       38.7113737935
 Pb        47.6130028228       32.1503454746       41.3916821660
  S        31.5261979522       22.6756446046       35.7006570011
 Pb        32.4622200269       22.8666524898       38.2438826614
  S        34.0663553530       23.0377163766       41.2749317795
 Pb        35.0240043655       23.2840887630       43.9369068380
 Cl        36.5841168173       23.6163736812       46.6814218913
 Cl        51.8666635811       25.6920177887       36.6933948482
 Cl        42.2543631682       39.3054875191       20.1425005467
 Cl        48.5607413064       32.1302416124       44.2956954046
 Pb        36.9930207431       32.8244293523       16.4096277246
  S        30.1320736035       25.1437873728       32.4188415522
 Pb        30.9874753782       25.3716651653       35.1130527489
  S        32.7951514590       25.8568125059       38.1560168932
 Pb        33.7193271544       26.0440453420       40.7761407189
  S        35.2969795590       26.3377182932       43.7655029228
 Pb        36.2828468806       26.4470846595       46.4483523924
 Cl        37.7457753271       26.8600141134       49.1923560809
 Pb        43.3585413275       39.5722474131       22.7674812414
 Pb        41.7027418273       45.9493645314       26.2293467359
  S        38.3895334049       33.3601597608       18.9515284928
  S        28.6175455148       27.8940330806       29.4977465217
 Pb        29.5450716900       28.0007719966       32.0230492504
  S        31.5184436006       28.6279479378       35.0553429272
 Pb        32.4396675570       28.7952509873       37.6535020628
  S        34.0790331071       29.0795575861       40.6922449069
 Pb        35.0670212032       29.2879049102       43.2499339600
  S        36.3727458632       29.5576627825       46.4316658479
 Pb        37.6727776380       29.7046377344       48.8794131261
 Cl        42.8172611897       46.2446262292       28.8965308239
  S        45.5310232130       25.2677059951       29.6874189149
 Cl        48.8579037802       24.5658416307       21.9644030130
 Pb        51.0321424932       27.8205648976       27.0825574303
  S        30.2671188740       31.4047921722       32.0290203237
 Pb        31.1595764541       31.5006013298       34.6564593860
  S        32.8621265166       31.8974639888       37.6289408889
 Pb        33.7600468300       32.0801708524       40.2655788080
  S        35.3212528434       32.3178662348       43.2541960202
 Pb        36.2935297577       32.6014453652       45.9270760704
 Cl        37.7728411786       32.5850883417       48.7027904441
 Cl        44.8616784968       24.4513661288       20.2527253792
 Pb        44.1980639516       19.0213270388       27.6841139812
  S        45.3949906140       19.2897485637       30.1127123554
  S        29.1822359361       34.2403298264       29.0466818465
 Pb        30.1252188301       34.2336954952       31.7052946556
  S        31.6762012067       34.7046382735       34.5885382559
 Pb        32.5561940608       34.7878853285       37.2715689163
  S        34.0945454483       35.1080479983       40.1648294626
 Pb        35.0710704315       35.3014718498       42.8475754398
 Cl        36.4947526448       35.4827085870       45.6269169907
 Pb        46.6014709502       25.4187641007       32.4034992930
 Pb        46.5315920873       19.4083711816       32.7432783275
 Cl        47.7933121814       19.5784484780       35.4608141842
  S        28.3488448519       37.2316131537       25.9005378867
 Pb        29.1419470494       37.0249106610       28.6354585658
  S        30.5664110034       37.5313108581       31.5424354658
 Pb        31.4336892813       37.5313308932       34.2927547763
  S        32.9403333301       37.9294546627       37.1080247750
 Pb        33.8613336014       38.0473922045       39.8456873058
 Cl        35.3190439775       38.2293122743       42.5655742818
  S        48.0417534734       25.5217956685       35.1972363941
 Pb        47.2381035540       33.6869796990       25.0237644699
 Pb        28.3218113644       39.8726425279       25.6456717288
  S        29.4607472950       40.4035131287       28.4137772401
 Pb        30.5128426315       40.2644406609       31.2401179135
  S        31.8197424923       40.7925523990       34.0219479333
 Pb        32.7493634041       40.7956839687       36.8264569212
 Cl        34.1511794485       41.0216783445       39.5084712244
 Pb        49.0907433881       25.6746123990       37.9348046333
  S        48.6236207532       34.0534734610       27.5533187260
 Cl        28.6080015059       43.3447133438       25.4356920573
 Pb        29.4262082754       43.2227227519       28.1574649369
  S        30.6398852194       43.7035885615       31.0072652458
 Pb        31.7670946795       43.6379015489       33.8715996700
 Cl        33.0586185343       43.8580305798       36.4853618602
 Cl        50.2286113803       26.0713171353       40.7350294585
 Pb        49.6239902581       34.2187966827       30.5205475374
 Cl        29.8298707656       46.3740859064       28.0258285201
 Pb        30.8910620204       46.4375447526       30.6735018700
 Cl        32.0356971709       46.7236454668       33.3270702856
 Pb        40.5905294077       27.4650126799       18.5530904041
 Cl        50.7650581251       34.3202490263       33.1273209818
 Pb        44.7294619062       27.4134836561       20.1174521467
  S        44.8058450399       40.0464533255       25.4910279919
 Pb        34.6077846804       16.6522214147       35.1372203695
  S        35.8543979103       16.9195030942       37.9981868612
 Pb        37.0494051492       17.1149072794       40.4122872634
  S        46.1481980485       27.4511474434       22.6070638596
 Pb        45.7894420761       40.0954499614       28.4206101182
 Pb        39.1396663445       33.4006856070       21.8135296521
  S        34.3158351140       19.3501417539       35.0245335176
 Pb        35.4230559607       19.8573349086       37.5002576271
  S        36.9021395783       19.9233176878       40.5939651998
 Pb        38.0374640111       20.3164008399       43.0351844245
 Pb        47.0974543310       27.8123088287       25.5528547884
 Cl        46.8922182291       40.2520347947       31.0892963491
  S        40.6344757444       33.8418590251       24.5405596798
  S        32.9965835146       22.3621429072       31.8758089619
 Pb        33.9289269075       22.5584106357       34.4254222559
  S        35.6743632084       22.8711735193       37.3553395236
 Pb        36.5960698831       23.0740283617       39.9356395173
  S        38.0616373943       23.1313707190       43.0258951576
 Pb        39.2262376440       23.5073787692       45.4782658288
  S        48.5149686753       28.0820386718       28.2030514034
 Pb        40.8518056879       32.9255494157       17.9892474269
 Pb        41.5404040430       33.9570248357       27.3140254579
  S        31.7150350140       25.1384487872       28.6712728597
 Pb        32.6419522415       25.2445940520       31.2776124508
  S        34.2886473810       25.5227737091       34.2841150390
 Pb        35.2743916716       25.7762061690       36.8714841798
  S        36.8256319004       25.9892854074       39.8672942072
 Pb        37.8129312826       26.2695070214       42.4381455378
  S        39.2257193303       26.3178091517       45.4970756550
 Pb        40.4024026634       26.7538894266       47.9693235785
  S        42.2709129432       33.3281313593       20.4802818822
  S        43.0103684643       34.3356121332       30.0804884215
  S        30.2950424820       27.4946763050       25.4831385854
 Pb        31.0885279449       27.8086699764       28.1959769612
  S        32.9797506900       28.3364525409       31.1737403772
 Pb        33.9475779457       28.4656679207       33.8054903934
  S        35.6262235944       28.8232855245       36.7529053607
 Pb        36.5905933316       29.0014206823       39.3653697530
  S        38.0090669234       29.2057647552       42.3463721117
 Pb        39.0899321949       29.4963867448       44.9753882949
  S        40.2464718132       29.4984283501       47.8439747948
  S        43.4943168966       36.6471598640       23.1039391897
  S        52.3144904610       27.9026739814       29.9603436767
 Pb        45.9372063110       24.3927439576       22.8433037229
  S        31.9382683717       31.1767799784       28.1540412901
 Pb        32.7360314555       31.2005865649       30.8144902969
  S        34.4295769626       31.5819903439       33.7258757985
 Pb        35.3560841869       31.7291036384       36.3646575186
  S        36.8939083680       32.0253368632       39.3178928850
 Pb        37.8474168331       32.2403433495       41.9220684998
  S        39.2808873745       32.3950014997       45.0026418353
 Pb        40.3939382066       32.6307919562       47.5123931344
 Pb        42.9371265612       21.8055139834       24.5528953581
  S        44.4616830212       21.8437227665       26.9743931608
  S        30.8456436013       34.0032905341       25.0072828782
 Pb        31.6692118818       33.9276869166       27.7738116650
  S        33.2824426401       34.3766574338       30.6696941743
 Pb        34.1852663420       34.4302619676       33.3788856865
  S        35.7190027833       34.8359387390       36.2569534973
 Pb        36.6400999713       34.9727716127       38.9344472479
  S        38.1201957653       35.2406310049       41.8567205089
 Pb        39.0921005297       35.4810215771       44.5257461331
 Cl        40.4667195732       35.4568784231       47.3474715797
 Pb        45.4511513980       22.1228830998       29.9092739794
  S        29.8413584039       36.8764558943       22.0677130954
 Pb        30.8330833719       36.7989931119       24.7375522239
  S        32.2451628494       37.2113322867       27.6629864705
 Pb        33.1378485377       37.1831506050       30.3879311354
  S        34.5936126139       37.6346073518       33.2286146420
 Pb        35.5033433637       37.7031136818       35.9534415693
  S        36.9697366120       38.0550814245       38.8003263474
 Pb        37.9162194610       38.2120562743       41.5090586899
 Cl        39.3403432921       38.3366132414       44.2880139407
 Pb        43.1605154746       33.5930582227       23.4725111133
 Pb        30.0357905043       39.4796239710       21.5491579379
  S        31.1509240346       40.1464902790       24.6701784165
 Pb        32.1669315636       39.9461866797       27.4053270165
  S        33.5249253990       40.4257362911       30.1978001683
 Pb        34.4521378855       40.4186604263       32.9610113818
  S        35.8292095592       40.8830671955       35.7511000075
 Pb        36.7729139704       40.9544869930       38.5165497974
 Cl        38.1946556381       41.1594670246       41.2139225919
 Cl        45.0163735517       36.0371043642       19.2446832663
 Pb        31.3731249504       42.8006875084       24.3812489889
  S        32.2670356177       43.3373387937       27.0378331535
 Pb        33.4731379598       43.2301581842       29.9602249861
  S        34.6453444577       43.7736079052       32.6237936788
 Pb        35.7086250898       43.7283726821       35.5275848262
 Cl        37.0217428544       43.9969439518       38.1166289059
 Pb        46.0914301753       36.4655124004       21.7804138203
 Pb        32.5427225906       46.0760480340       26.9369303769
  S        33.4243402207       46.3449944591       29.5416253857
 Pb        34.7327900609       46.5111951554       32.3802190631
 Cl        35.8583053097       46.8030840920       34.9876465648
  S        47.5230155251       36.8729391626       24.6031577663
 Pb        49.5033116754       28.2334493474       30.9542472999
 Cl        51.2163796840       36.7148706289       26.0705047718
  S        37.0561727745       16.6269054820       34.0112061620
 Pb        38.3017763065       16.8928880197       36.5317233930
  S        39.6017945341       17.1319235123       39.3340882859
  S        51.0048065269       28.3783795727       33.8610271414
  S        48.8237840854       30.3620019432       21.5889770008
  S        36.0453029293       19.3919949468       30.9088353962
 Pb        36.8531182617       19.4423873226       33.6032437662
  S        38.4877053320       19.6807319412       36.3230879031
 Pb        39.5173844485       19.9336687416       39.1978015593
  S        40.7562318912       20.3429828350       41.7836712522
 Pb        51.8950759264       28.5654761998       36.4987738822
 Cl        43.4584250157       42.6100241694       22.6997577096
  S        34.8073997659       22.0885061964       27.9234310837
 Pb        35.4944116747       22.1917790685       30.6632699604
  S        37.2111090469       22.5974778863       33.3803757167
 Pb        38.1671971635       22.7761125482       36.0595659815
  S        39.6495388661       23.0631429193       38.8075669914
 Pb        40.6897781475       23.1230603988       41.6350688710
  S        41.9004434506       23.5421111240       44.3032783276
  S        44.8537053942       30.2312014221       19.9414414841
 Pb        44.5674055031       42.8248048873       25.3337103801
  S        33.4519295297       24.6900112423       24.9423346406
 Pb        34.2414424556       25.0112799406       27.5961640100
  S        35.9748010213       25.3164285768       30.3593253271
 Pb        36.8496244031       25.4456997634       33.0612774740
  S        38.4472039844       25.7383413330       35.8506610424
 Pb        39.4402129770       25.8849034219       38.5828956300
  S        40.8380946087       26.3151894364       41.3055263563
 Pb        41.8810727302       26.2825314329       44.1148172438
  S        43.0587710349       26.8481466811       46.7992078182
 Cl        45.6953149483       43.1029087945       27.9777213905
  S        32.2818052562       27.2415167533       21.7637245359
 Pb        32.8454470881       27.5659923804       24.4101249330
  S        34.7069948022       28.0238961231       27.3246693643
 Pb        35.5300412171       28.2086401826       30.0108933364
  S        37.2382936092       28.5258256328       32.8604885750
 Pb        38.1643092303       28.6859775474       35.5128016128
  S        39.6963987957       29.0219525083       38.3923094799
 Pb        40.6428624912       29.1207412489       41.0229588863
  S        42.0313023666       29.5509038383       44.0342671089
 Pb        43.0296906914       29.5105171515       46.6112286635
  S        46.8643754703       22.1952977265       32.5539080206
 Pb        47.8927054228       22.5007232599       35.4326625415
  S        33.5453150197       30.7323674337       24.2519867643
 Pb        34.3913307954       30.9092653425       26.9021238788
  S        36.0504796452       31.2542995186       29.8441454200
 Pb        36.9742246062       31.4088579876       32.5198918821
  S        38.5148946682       31.7410692252       35.3833973271
 Pb        39.4914311883       31.8997753098       38.0709502850
  S        40.8970990282       32.2723383932       40.8760890716
 Pb        41.9398991616       32.3867402864       43.6509594578
  S        43.1152644483       32.8451497346       46.3308017655
 Cl        49.0277983348       22.7766826184       38.1055057121
  S        32.7154608527       33.5748075061       21.1354930744
 Pb        33.3736453379       33.5891062127       23.8504862397
  S        34.9335392101       33.9904391656       26.8178721775
 Pb        35.8200979440       34.0995863302       29.5012994448
  S        37.3698226981       34.4998349035       32.3773998201
 Pb        38.2909384978       34.6203550014       35.0511309819
  S        39.7636031130       35.0243032891       37.9252709166
 Pb        40.7356720333       35.0729233056       40.5747352553
  S        42.0857948114       35.6258113246       43.5580260318
 Pb        43.1242934861       35.5179387184       46.1646782900
  S        31.6433148935       36.1561779020       18.0848600997
 Pb        32.3643370421       36.3919712612       20.7952424172
  S        33.9669732123       36.7251199555       23.7643729931
 Pb        34.8081707342       36.8535813113       26.4383820517
  S        36.2777976544       37.2652096330       29.3577288693
 Pb        37.1958011258       37.3770520907       32.0565038755
  S        38.6367162243       37.7569988693       34.9302822940
 Pb        39.5834663084       37.8418350067       37.5798146809
  S        40.9604004665       38.3674444169       40.5771387925
 Pb        41.9787325787       38.3559768602       43.1510087284
 Pb        48.5683510622       37.0247898964       27.4590660282
  S        32.8601872417       39.5237889361       20.8820833506
 Pb        33.7964536655       39.6506439208       23.4316317713
  S        35.2127970806       39.9721154560       26.4042633964
 Pb        36.1366150913       40.0609560041       29.0465110312
  S        37.5406259990       40.4671903364       31.9308779098
 Pb        38.4633662405       40.5787189698       34.5655446540
  S        39.8228257157       41.1235817667       37.5724216832
 Pb        40.8362402621       41.1140984166       40.1515148606
 Cl        49.6696964319       37.0240479398       30.1964053453
  S        34.0723304464       42.7244018333       23.4410107126
 Pb        35.0663865352       42.9074193597       25.9685234448
  S        36.3935518822       43.3949192987       28.9457549066
 Pb        37.4142486600       43.4261474497       31.6007094371
  S        38.7129773513       43.8559773421       34.5727983365
 Pb        39.7160922878       43.8631534148       37.1368411971
  S        44.5501912764       33.9431916030       26.1069403108
  S        35.3011384948       45.9184271348       26.0399122747
 Pb        36.2587744388       46.1262500296       28.5131475478
  S        37.6120926798       46.3699519976       31.5794236120
 Pb        38.5971272289       46.6202312429       34.0503321497
 Pb        45.5728941203       34.1036474739       28.9611227169
 Pb        45.9691521337       30.4706728401       22.4280644312
  S        46.9673780850       34.3267465705       31.6475372309
 Pb        40.0378824220       16.5351213776       32.7704916378
  S        41.2703992242       16.7461409313       35.3807089413
 Pb        42.0819520940       16.9398818362       38.0610308322
  S        47.4193186990       30.7481476108       25.3032284494
 Pb        48.0273629346       34.5573956404       34.4410899881
 Pb        38.4409453413       19.2944565489       29.9107325655
  S        39.8148201037       19.2806254115       32.4433939367
 Pb        40.9468393540       19.7105268513       35.1295200825
  S        42.4073165682       19.7296112180       38.0660363291
 Pb        43.2536564418       20.1051322305       40.7265867860
 Pb        48.4440862541       31.0027333942       28.0093944560
 Cl        49.1660250901       34.6692204121       37.1647212192
 Pb        37.1933435280       21.9725120853       26.7397088058
  S        38.7375226941       22.0331309517       29.4763813035
 Pb        39.7110188904       22.4890043076       32.1832732448
  S        41.2384467684       22.6744027802       34.9897374805
 Pb        42.1917747071       22.9135642090       37.6451583077
  S        43.6175573373       22.9127275336       40.6509663094
 Pb        44.4600183765       23.2962864208       43.2747058993
  S        49.8463863017       31.0839134187       30.7954157090