     381
 i =       55, E =    -13380.2582159088
 Zn        16.6281806068       22.1663656861       16.6379989457
 Zn        19.4449453091       24.9679385281       16.5613867592
 Zn        22.2406648480       27.7511995316       16.3902545520
 Zn        17.1303285936       24.7893396956        8.5599880254
 Zn         8.3116377305       13.7506996888       16.4000489933
 Zn        11.0455026938       16.5517834847       16.5581524708
 Zn        13.8334060111       19.3691461288       16.6384592403
 Zn        19.3658314508       22.1715830579       19.3631907692
 Zn        22.2282814036       24.9628186243       19.2773650118
 Zn        24.7849603682       27.5116160161       18.8775252860
 Zn        13.5344423690       10.7910869594       13.5369843674
 Zn         8.5596192457       11.2039258213       18.8642624860
 Zn        11.1068631052       13.8377038776       19.2703005062
 Zn        13.8373450828       16.6319718512       19.3652476737
 Zn        16.5709835607       19.4290679924       19.4149118983
 Zn        22.1629339136       22.1663810845       22.0844919402
 Zn        25.1918664168       25.2077031924       22.2527886715
 Zn        16.4787609375       13.6940036147       13.7538351041
 Zn        10.7989140865       16.1672484486       10.8092991634
 Zn        11.2876204628       11.2826612263       21.9241686351
 Zn        13.9154658503       13.8356569832       22.1642742602
 Zn        16.6357779440       16.6315966528       22.1660866018
 Zn        19.3702481264       19.3671754960       22.1583634435
 Zn        24.7164079234       21.9239746471       24.7133482571
 Zn        19.5036453301       11.0398284321       19.4520071304
 Zn        13.7559501072       10.7996796949       25.1998894996
 Zn        16.7295551634       13.7646920535       24.9505286457
 Zn        19.4499842878       16.5475775937       24.9532208541
 Zn        22.1613575420       19.2691901710       24.8923852000
 Zn        22.3062650506       13.7014722069       19.5204146071
 Zn        27.7526841304       16.3972551519       22.2350805726
 Zn        22.1709625491       16.6326324327       16.6388042740
 Zn        21.9054302039        8.4732286007       14.2431240874
 Zn        22.2550333492       22.3065321937       16.4777295460
 Zn        19.6721394835       13.7544945904       27.6914160799
 Zn        22.2491098462       16.3985666895       27.6881838790
 Zn        24.7964956034       18.8616361438       27.4405077549
 Zn        19.3678356969       16.6268764358       13.8466265291
 Zn        19.2866378045       16.7137443739        8.3107833979
 Zn        11.2724946895        8.5560586479       18.8767338290
 Zn        13.7588060105       16.3302829921        8.3148460695
 Zn        21.9246280813       11.2827483210       11.2867610599
 Zn        16.7003907738       19.2833444818        8.3146328943
 Zn        27.4444153046       24.8038775395       18.8683386995
 Zn        22.4758389061       13.5925786005       25.1863180509
 Zn        27.6886189083       19.6707324306       13.7597039479
 Zn        14.2490952454        8.4750301043       21.9094400903
 Zn        13.7492664656       13.6961044792       16.4850582792
 Zn        25.1925318121       19.7703276557       10.8124969489
 Zn        24.9710890665       16.5590917027       19.4369389382
 Zn        16.5614603078       11.0353830862       16.5619350242
 Zn        17.1967040641        8.5526682188       24.7875306056
 Zn        19.7617896158       25.1976865433       10.8067226383
 Zn        19.4242603531       19.4308742128       16.5751687056
 Zn        16.7219146585        8.2443377078       19.3538618488
 Zn        19.8341795699       10.8071365688       25.1976110335
 Zn        11.2772448023       21.9112692567       11.2867592900
 Zn        14.0746985332       24.7154032230       11.2852717178
 Zn        17.1249216773       27.4423925635       11.2694851980
 Zn         8.5601092712       18.8044215059       11.2734919143
 Zn        13.8329977464       22.1594051357       13.9124820209
 Zn        16.7188246929       24.9555859734       13.8479142863
 Zn        19.6065353890       27.6955708625       13.7646154423
 Zn        16.2370518577       10.8007566157       10.8093436155
 Zn         8.3072816691       16.3292187248       13.7647593555
 Zn        11.0443213448       19.2711068219       13.8447237744
 Zn        16.4943876870       24.9599212046       19.4470711628
 Zn        19.2845187606       27.7544096588       19.2906856067
 Zn         8.2490280083       16.7132043897       19.2940262099
 Zn        11.0391389411       19.5024824181       19.4458002311
 Zn        13.6945188485       22.3002212076       19.5255653841
 Zn        19.2658305372       24.9531711823       22.1520150840
 Zn        21.8456367265       27.5263967915       21.7510305254
 Zn         8.4877512393       14.2376571346       21.7736305708
 Zn        11.1043218611       16.7373421858       22.1613015922
 Zn        13.7501089351       19.5219914310       22.2553167380
 Zn        16.4767093340       22.2537719981       22.2505044898
 Zn        21.9158611126       24.7151433110       24.7183992648
 Zn        22.1670679566       19.3720907554       19.3614152633
 Zn        21.7728213544       14.2382380014        8.4896467824
 Zn        22.1675446324       13.8368642911       13.9160644854
 Zn        19.3725697285       13.8341717693       16.6389988706
 Zn        11.2827645153       14.0814016947       24.7148652753
 Zn        13.8459704243       16.7226585487       24.9514713882
 Zn        16.5497472098       19.4473624225       24.9555324223
 Zn        19.2654362587       22.1638910625       24.8944136596
 Zn        25.2085808586       10.8080528362       13.7465729600
 Zn        14.2465506606       14.0916213629       27.5244278709
 Zn        16.7124119610       16.6454565829       27.7553842406
 Zn        19.2867674805       19.2855152183       27.7530423663
 Zn        21.7616951796       21.7711761890       27.5130342076
 Zn        22.3174813956        8.3083626985       19.6666862945
 Zn        22.2360144529       11.0478754170       16.7242605351
 Zn        25.1950515966       25.2610518156       16.2319923701
 Zn        13.8481261378       11.0439100521       19.2810964607
 Zn        10.8070384683       13.5257827909       13.5928978936
 Zn        24.7168020408       14.0849610408       11.2825166279
 Zn        27.4427902163       17.1503940960       11.2712404137
 Zn        22.1663681339       16.7339020877       11.1114379031
 Zn        18.8624555731       11.2049970743        8.5603680463
 Zn        24.8043781908        8.5554106957       17.1324029979
 Zn        25.2062904438       16.2422128148       25.1865756576
 Zn        25.2681536088       10.8037035142       19.7673515742
 Zn        22.2368810821       19.6138555611        8.3160491275
 Zn        24.9573067456       19.5108644435       16.5520926745
 Zn        24.9638374694       13.7735435294       16.7212283837
 Zn        19.4491815845       19.4538714892       11.1025222638
 Zn        27.6922841391       22.3172952320       16.3354706544
 Zn        19.5296835743       13.7492609493       22.2539427053
 Zn        16.6379238601       13.8298199180       19.3679999712
 Zn        27.7544539737       16.7173766310       16.7080649592
 Zn        10.7912183312       25.1907750813       13.7470274967
 Zn        14.0936852181       27.5258511888       14.2412692729
 Zn         8.4747477906       21.8423477443       14.2431094832
 Zn        13.7631104167       24.9512568708       16.7233204850
 Zn        16.6411804273       27.7574449102       16.7149961105
 Zn        19.4325281761       16.5730077322       19.4203442220
 Zn        22.2553318882       19.5273939630       13.7540863794
 Zn         8.2458161517       19.2994619183       16.7105341550
 Zn        11.0357794907       22.2293897682       16.7221030679
 Zn        16.3308985005       27.6894310703       22.2405191147
 Zn         8.3121155147       19.6071717200       22.2438826470
 Zn        10.7952060979       22.4632187079       22.4713229458
 Zn        13.5214610936       25.1956896707       22.4711032226
 Zn        18.8590707875       27.4438221454       24.7282587344
 Zn        27.5260559696       14.1550044107       14.2477497395
 Zn        16.7352968945       11.0478620340       22.2326859526
 Zn        19.2721464019       13.8324502431       11.1129895284
 Zn        16.6255612817       19.3689487262       13.8448814346
 Zn        19.6052047543       22.2407556735        8.3160630113
 Zn        24.7909545621       17.1949761478        8.5608884847
 Zn         8.5610345683       17.1926068494       24.7941683152
 Zn        10.8139242441       19.7651252189       25.1971059857
 Zn        13.5383128465       22.4624565790       25.2014277191
 Zn        16.2316891678       25.1946092165       25.1877309270
 Zn        13.5345897881       13.5215166596       10.8087284921
 Zn        16.5720560096       16.5701788983       16.5732453713
 Zn        11.2737241032       17.1252466588       27.4434476148
 Zn        13.7648618326       19.6084929550       27.6914801076
 Zn        16.3881189479       22.2402951794       27.6873760853
 Zn        16.7231874234       22.1589906853       11.1107801601
 Zn        22.4596083007       22.4684519178       10.8004240888
 Zn        19.5175707833       22.3023790248       13.7496600652
 Zn        13.7642871765        8.3082233985       16.3924401703
 Zn        24.9486962935       22.2376916002       19.2733450055
 Zn        22.4873810002       10.8137095647       22.4703073390
 Zn        25.2048106790       13.5950390258       22.4061645000
 Zn        16.3917605038        8.3084470415       13.7645480060
 Zn        22.2971163715       16.4842342695       22.2513839429
 Zn        22.4628905629       25.2133650498       13.5381850066
 Zn        24.9539029342       16.7359936416       13.8485521295
 Zn        16.3918025386       13.7484337970        8.3153366110
 Zn        19.6745059205        8.3116819264       22.2476803157
 Zn        19.3557472229        8.2427367730       16.7202295535
 Zn        11.1954996625       27.4437426897       17.1316067094
 Zn        24.9581967107       19.2785719043       22.1496940123
 Zn        27.5256956225       21.9065234422       21.7576017253
 Zn        19.2804733535       11.0442126746       13.8487111680
 Zn        27.7567379475       13.7611587348       19.6041497381
 Zn        13.6833804414       27.6928685946       19.6641577458
 Zn        11.2039252155       18.7938760065        8.5623251809
 Zn         8.2455849782       22.2453679519       19.6600516890
 Zn        10.7361476915       25.1979199088       19.7692605930
 Zn        13.6994518366       16.4690839745       13.7562576039
 Zn        14.1750162952       21.7632513995        8.4892448518
 Zn        25.1926159343       22.4789258318       13.5328567496
 Zn        27.4457903942       18.8752170334       24.7278438883
 Zn        13.8375656846       19.2078592711       11.1136095132
 Zn        27.7557058051       19.3588128248       19.2848311285
 Zn        16.5412190949       16.4940614749       11.1036097011
 Zn        18.8744820963        8.5569622476       11.2706331475
 Zn        10.8087732170       10.7977934892       16.2414162073
 Zn         8.4872947847       24.7766495910       17.1252755743
 Zn        17.1957113210       11.2142222951       27.4484384583
 Zn        18.8059067427       24.7926703009       27.4395451963
 Zn        27.5129348665       11.2150120430       17.1214646103
 Se        17.9109868447       23.7146872649       23.6924172820
 Se        20.8632599760        9.5580356122       18.0502786286
 Se        20.8855579082       23.7361227666       15.1017134252
 Se        21.0573537134        9.3722999781       23.7811575928
 Se         9.5803879787       18.0323099720       20.8067384418
 Se        26.4378274412       18.0702397173       15.1968678141
 Se        26.4923481770       15.2087263393       12.3697310813
 Se        18.0329302861       15.1618517416       20.8382983697
 Se        15.1658386579       20.8007392448       12.3952145630
 Se        15.1871027070       17.9197877566        9.5996967673
 Se        23.7513249811       26.6638972333       14.9946967909
 Se        12.3805468770       15.1822607275       26.4972616293
 Se         9.3410220117       23.7633065903       21.0289210529
 Se        12.4018216785       15.1813242542       20.8197609942
 Se        23.7680507030       20.9928844809        9.3767876960
 Se        20.7640559641       23.6581727649       26.4909793618
 Se        23.6423249512       20.8055978790       20.7733069413
 Se        15.0838308196       23.7036949829       20.9116593063
 Se        17.9327890034       26.4395372701       20.8013556226
 Se        15.0087583690       12.2187685625        9.3791937191
 Se         9.5404285982       20.8314330377       18.0413515826
 Se         9.3299590683       26.6244436421       18.2032318176
 Se        20.8907996163       20.9135360839       12.3162064907
 Se        20.9833960449       23.7749396816        9.3733953492
 Se        18.0124668731       26.4514947622       15.2100909373
 Se        17.9643649607       15.1425090886       15.1550506947
 Se        15.0804540916       15.0708677852       12.3310933282
 Se        17.9972580292       17.9990282201       17.9933412091
 Se        12.2894199486       15.0800395100       15.1325382453
 Se        20.9790990378       26.6309040949       12.2257296240
 Se        20.8183290590        9.5016180846       12.3756399005
 Se        15.1070223115       20.8951329960       23.7060121815
 Se        20.8042186670       12.3576469556       15.2231046899
 Se         9.4014333457       18.1988106097       26.6643785091
 Se         9.5729717172       15.1839119932       17.9827530344
 Se        15.1396642225       20.8556881212       18.0392367163
 Se        17.9827476201       23.6336719439       18.0066834496
 Se        23.7197236944       15.1202221793       20.8757336922
 Se        23.7948120374       15.0322632866       26.6306699584
 Se        15.2096852385        9.5490836464       17.9819000953
 Se        17.9882614753       17.9858924722       12.3944840704
 Se        23.6704606019       26.4552340231       20.7544139326
 Se        15.0105941633        9.3712805036       12.2295705695
 Se        20.8130598895       17.9808414430       26.4231212573
 Se        12.2921923938       20.9045682665       20.9140408799
 Se        26.4547433155       12.3293426252       15.2420632669
 Se        26.6281026924       26.6683497984       17.7936391227
 Se        23.6480772754       20.7892224858       26.4846723287
 Se        23.6470699979       15.2039088215       15.2212808945
 Se        17.9685930129       20.8430030215       20.8378322239
 Se         9.5425477440       23.6661358208       15.2440218577
 Se        23.6367632309       23.6461583284       23.5364534631
 Se        15.1585603001       18.0291471605       20.8403711685
 Se        12.2596781062       17.8860942105       12.3088647724
 Se        18.0147661827       12.3688607884       18.0079257979
 Se        17.8165407130        9.3504211879        9.3941112608
 Se        12.2637749125       23.7188542288       18.1170975730
 Se        23.7274808047       17.9307309344       23.6955040677
 Se        15.1423026759       17.9625982423       15.1558765725
 Se        17.9770763091       20.8119726347       26.4255060894
 Se        15.1324674700       26.4431373105       18.0493196006
 Se        20.8172438443       20.8221315470       23.5965886640
 Se        20.7951662662       26.4918732925       23.6272769581
 Se        17.9224070962       12.2699978266       12.3040405761
 Se        18.0262495406       20.8519613156       15.1526160213
 Se        12.3798641814        9.4999050160       20.8221666034
 Se        12.3247035175       20.7398695849        9.5241422982
 Se        18.1405024134       12.2977466738       23.7052668059
 Se        23.6333595703       18.0188130325       17.9887039876
 Se        12.1680180553       26.6020359453       21.0309552962
 Se        26.4436990455       20.8682594625       17.9475169641
 Se        18.0660329465       23.7256673541       12.2999800742
 Se         9.3940526033        9.3462333465       17.8229881571
 Se        15.1966335763       23.6393348706        9.5103694440
 Se         9.3481160586       17.7485604881        9.3953444385
 Se         9.3636748019       12.2071765676       15.0247201243
 Se        26.6645153114       12.2593222916       20.9964056300
 Se        23.6901508263       20.9254068664       15.0964372303
 Se         9.5123625373       15.2352705007       23.6570327581
 Se        26.6165737770       21.0241396081       12.2121507793
 Se        20.8079290896       18.0386465588        9.6062479348
 Se        17.9662303052       15.1736920174        9.5993119836
 Se        15.2726617023       12.3014647798       26.4358212666
 Se         9.3720930909       20.9812309952       23.7829920241
 Se        15.2107922152       18.0218312404       26.4463730733
 Se        15.2274876491       15.1989437297       23.6423965419
 Se         9.5147703386       12.3501966329       20.7896265870
 Se        12.3007500717       26.4217173582       15.2453693763
 Se        18.0668645831        9.5769408479       20.8300031785
 Se        15.2748616597        9.5667414169       23.6987596661
 Se         9.4970091831       20.7754085075       12.3649256889
 Se        12.1707961855       23.8131243292       23.8349893879
 Se        23.8315210239       12.2488928934       23.7887705979
 Se        12.3689513638       18.0062162955       18.0122716632
 Se        12.1746445787       12.1799091104       12.2014496650
 Se        23.7136597921       18.0920594786       12.3091489308
 Se        15.0111664847       23.7741984719       26.6247135100
 Se        26.4619645658       17.9820702058       20.7910716571
 Se        12.4672715921       12.3610418536       23.6431369309
 Se        23.8066839593       23.8321641309       12.1721379719
 Se        26.6576960926       17.8260867269       26.6080813905
 Se        20.8419271611       18.0288879190       15.1591621013
 Se        20.9181723904       12.3035459638       20.9039463297
 Se        17.9831832059        9.5485855572       15.2102184369
 Se        12.2276616444        9.3691225650       15.0124014615
 Se        12.2348500831       20.9902609143       26.6286162061
 Se        23.8371313302        9.4014754321       21.0263758258
 Se        20.9089126752       15.1294150252       23.6909714805
 Se        15.1913485172       23.6399445271       15.2218579328
 Se        20.8510936801       17.9726377536       20.8394034717
 Se        23.6967758681        9.5772992989       15.2453856583
 Se        18.0547512822       15.1677311865       26.4277631578
 Se        15.1045546959       12.2610043667       15.1110962354
 Se         9.3741470465       14.9510065108       12.2401358831
 Se        20.7963368002       23.6473861200       20.7757373796
 Se        23.6444994410       12.3640721938       12.4612033028
 Se        20.8424097832       20.8552714901       17.9607965641
 Se        18.1745616087       26.6450792790        9.3901804133
 Se        12.2995545752       12.2695243986       17.9272701982
 Se        23.7078530076       23.7290011112       17.8774239672
 Se        20.8580563806       15.1488019435       18.0363517708
 Se         9.5533046964       17.9446535840       15.1977868172
 Se        12.3493698179       20.7949806942       15.2233827602
 Se        20.8191942951       15.1809454390       12.4039382023
 Se        26.4982645500       20.8211427444       23.6221994788
 Se        26.4510570136       15.1879096980       18.0270405150
 Se        23.7356156171       12.2815576410       18.1120709536
 Se        18.2839300413        9.3682170587       26.6354178471
 Se        20.8132487558       26.4501711514       17.9687412923
 Se        18.0044280236       18.0061575113       23.6208353408
 Se        26.6731088029        9.3686061043       18.2005832165
 Se        26.6391074277       15.0362325912       23.7513701719
 Se        26.6012288170       23.8322849815       14.9672366760
 Se        12.3094971737       18.0821369148       23.7169477222
 Se        26.4201519114       23.6971743938       20.7504236207
 Se        18.0289308221       20.8070472999        9.6046323400
 Se        17.7906007310       26.6596566599       26.6033887170
 Se        14.9766098312       26.6210076810       23.7881475401
 Se        12.3503221920       23.6333594412       12.4610651473
 Se        15.1769616606       26.4974595707       12.3744424923
 Se        15.2267324968       12.3562708996       20.8028561870
 Se        21.0602481473       12.2429560812       26.6185275369
 Se        23.6562917279       15.2373804497        9.5107917502
 Se        20.7876859097       12.3505839080        9.5147325685
 Se        26.6564082964       18.2139035304        9.3929738820
 Se        12.2158001091       14.9583905405        9.3662229563
 Se        15.1526848226       15.1451328457       17.9665095351
 Cl        23.4818891350       18.0138294910        6.9844934642
 Cl        29.0928494071       15.2753174732       20.7355664991
 Cl        20.8039821376        6.9580360175       20.7617574411
 Cl        23.5025151362       18.0158983926       29.0148524321
 Cl        17.9907293720        6.9724380181       12.5255134976
 Cl        29.1018189425       18.0412642264       17.9896391852
 Cl         6.9334219731       23.4927827178       18.0551094070
 Cl        12.4509715561       29.0173788829       18.0588459213
 Cl        15.2493469845        6.9598598750       15.2485528356
 Cl        29.0195114278       18.0489927092       12.5223570054
 Cl        12.2970202193        9.6875738705       26.3084926795
 Cl         6.9756459280       18.0072074196       23.5010086819
 Cl        20.6713480670       29.0759779099       20.7212942641
 Cl        15.2568585076       29.0755015320       15.2833880997
 Cl        18.0827716761       12.5046394100       29.0189856435
 Cl        15.2869333189        6.9297777096       20.7300298921
 Cl        17.9837605759       23.4976884786       29.0226761543
 Cl        17.9972903788       17.9825016965       29.0993517637
 Cl         6.9514068756       15.2256914045       15.2685028809
 Cl        12.5080294683       17.9502996503        6.9953468164
 Cl        23.4937326455       29.0721597271       17.9691514129
 Cl        17.9892803189       17.9944679114        6.9454975033
 Cl        17.9877714148       23.4845832565        6.9962129907
 Cl        29.0454584928       20.8092750620       15.2263478672
 Cl        17.9621222480       29.1016600036       18.0039557637
 Cl        26.3192446900        9.6901825920       12.2930763607
 Cl         6.9273341985       20.7152966670       20.7706298420
 Cl        29.0758127498       12.5094006856       18.0173092087
 Cl        18.0200916696        6.9136472101       18.0168784724
 Cl         6.9213911130       20.6758021250       15.2794841220
 Cl        18.0825389816        6.9821596129       23.4995137871
 Cl        20.6886049893       20.6951251133       29.0897261147
 Cl        15.2630593898       20.7463932316       29.0364022279
 Cl        23.5432731227        6.9833894828       18.0541792853
 Cl        17.9985914718       12.4992454395        6.9916190156
 Cl         6.8874589121       17.9912401517       17.9989125782
 Cl        17.9561030986       29.0181923467       23.4734560598
 Cl         6.9722177980       17.9347861401       12.5326662494
 Cl         6.9849906521       12.4931977576       18.0082111174
 Cl        15.1931852523       29.0448421084       20.7679270393
 Cl        15.2662054008       15.2372710413        6.9595438206
 Cl        17.9971827018       29.0290358209       12.5257705185
 Cl        26.3158978534       26.3242714800       23.6966416403
 Cl        20.7238164794       29.0665154899       15.2447417671
 Cl        29.0751327175       15.3326200663       15.2723050071
 Cl        29.0499984635       18.0196162969       23.4739384403
 Cl        29.0758622976       20.7458350185       20.7122722208
 Cl        29.0181884034       23.5495774546       17.9369821631
 Cl        15.2829435995       15.2703623982       29.0720877460
 Cl        15.2910779842       20.6689427875        6.9531713445
 Cl        12.5345367212       18.0056401735       29.0278348503
 Cl        20.7700134222       15.2741122729       29.0441465407
 Cl         6.9102934400       15.3073324820       20.6966812456
 Cl        12.5286850364        6.9718318376       17.9929442010
 Cl        20.6741016158       15.3208843171        6.9375660460
 Cl        20.7317588857        6.9263035848       15.2803045758
 Cl        20.7242371755       20.7311577515        6.9746356629
 Cl         9.6587370154       26.2993248076       12.3038072962
