691
 i =       64, E =    -18878.8452138506
Hgd        26.0151173478       32.1375636534       25.9118812927
Hgd        29.1323800475       35.2313377947       25.9150832738
Hgd        32.3503773074       38.1742076566       25.7796760098
Hgd        35.3574965831       41.3957798445       25.7572232327
Hgd        41.7042189511       28.7413828866       35.8472141079
Hgd        14.6556581850       19.3055964231       26.8707479597
Hgd        16.6874723823       23.1690347838       25.9288826270
Hgd        19.8841635228       26.0740878578       26.0680898496
Hgd        22.9089409859       29.0930344894       25.9784678845
Hgd        29.1048535087       32.1068568081       29.0852278808
Hgd        32.1203638869       35.2347013649       29.0763531803
Hgd        35.2254695369       38.3942226529       29.1616697310
Hgd        36.9913565308       41.3453267066       28.5074299790
Hgd        29.7021418339       34.8590670590       13.6427062155
Hgd        22.7433832662       19.7847951759       22.9575122417
Hgd        16.8834532400       19.7879397342       29.2108256666
Hgd        19.8108504215       22.8545883867       29.0811158079
Hgd        22.8929310042       25.9844132413       29.1734326010
Hgd        25.9853468468       29.0335026125       29.0965275663
Hgd        32.2112719355       32.1668235674       32.2272391111
Hgd        35.1926494733       35.3818983961       32.2675331620
Hgd        25.9373488286       22.8567718195       22.7885133050
Hgd        19.9753826621       25.9010246201       19.7207394519
Hgd        19.9062308047       19.5725476149       32.3511910515
Hgd        22.8725810012       22.8246150609       32.2571583763
Hgd        25.9720674188       25.9766537448       32.2291498887
Hgd        29.1084694121       29.0294170557       32.2313014866
Hgd        35.3940783852       32.1947598045       35.3619569178
Hgd        37.6653807498       35.4878305632       35.2104792083
Hgd        19.2996953469       40.4019089991       28.1995966039
Hgd        40.8024483523       32.0239207230       34.6465019734
Hgd        29.0130470458       19.8773824322       28.9585874878
Hgd        20.3108754543       16.9322162759       35.2856185894
Hgd        22.8731453949       19.7831282613       35.4337418884
Hgd        26.0635379024       22.8912020127       35.2518425356
Hgd        29.1256162745       25.9606332412       35.3187134855
Hgd        32.2418950638       29.0537584075       35.3521926288
Hgd        35.4404453121       19.9362244586       22.7612975514
Hgd        32.1586540520       22.9162779890       29.0484844083
Hgd        38.3317884556       25.7760154784       32.2333697845
Hgd        32.1544965581       25.9573008959       25.9642929082
Hgd        28.7713679626       13.8452847971       22.9369990439
Hgd        32.2713681540       16.7893297384       22.8688559453
Hgd        25.9336638188       19.6971064732       38.4368476623
Hgd        29.1949715258       22.6749997156       38.2216332030
Hgd        32.1769002456       25.7654405109       38.3589805614
Hgd        35.5049235054       28.9452501317       38.2846388080
Hgd        29.1594718916       29.1284109181       13.6133679774
Hgd        41.0789291544       34.8912090114       31.0953176870
Hgd        29.2443143430       19.6700975589       41.3980534998
Hgd        32.3857598187       22.7430891809       41.3081524383
Hgd        34.7093305997       25.0929393279       41.4700103184
Hgd        35.8615668383       28.5434762529       41.7358221518
Hgd        29.0827275898       16.8703106028       19.5677722110
Hgd        29.0876188571       26.0183827816       16.6600819146
Hgd        19.8932704916       16.6146647817       29.1525815552
Hgd        35.2271872490       29.3296447627       13.6063378012
Hgd        38.3680309526       35.0693691951       23.0908801310
Hgd        22.7470558204       25.8921226460       16.8192466902
Hgd        32.2439337368       19.7244691614       19.6863668741
Hgd        25.9944862082       29.0713396765       16.6341773408
Hgd        19.5538539300       20.0426206818       20.0023055822
Hgd        29.0531329677       22.9120527964       25.9019237310
Hgd        32.2100237215       22.8895762928       16.6983948713
Hgd        32.0654105259       22.7451344956       35.3147994551
Hgd        38.4456423104       29.1586047639       23.1546610051
Hgd        23.0726498653       16.6018901721       32.1757570160
Hgd        38.4564969856       19.8787608338       25.8673367897
Hgd        41.4954201063       22.9076291613       26.2568556842
Hgd        25.9939712512       25.9788080474       25.9607300994
Hgd        22.8521873745       13.7875678779       22.5157579753
Hgd        20.6072857998       13.8771072026       31.7758523597
Hgd        22.7714933547       23.0393713572       19.7233524576
Hgd        25.1808482740       20.3526098279       13.5968213876
Hgd        16.7180577634       19.9986400781       23.0873593161
Hgd        22.9111089601       22.9209919742       26.0014035628
Hgd        35.0751797664       29.2271142952       19.7311845672
Hgd        35.0859528013       35.2889664681       25.9037261269
Hgd        38.4538808502       23.0343142253       22.8250274665
Hgd        35.2773906303       25.9320874709       29.1451146106
Hgd        26.0937269231       19.7103038846       19.6534525808
Hgd        35.3131861182       26.0321998438       16.6200645771
Hgd        22.9765763533       28.9175033519       13.6010995789
Hgd        19.5011214968       35.7664339405       17.0466911937
Hgd        26.2999249747       41.6913685546       19.2215620846
Hgd        19.7879745639       22.9740208673       22.9612600414
Hgd        28.9296573053       35.3800063094       19.6403109819
Hgd        32.4930776525       38.0238337960       19.8503377909
Hgd        29.0652024028       29.0703466433       25.9536311124
Hgd        19.7917889769       32.3625260740       19.4819527344
Hgd        22.7826162114       35.3830935760       19.7183963702
Hgd        25.9788526535       38.2130325175       19.6025363586
Hgd        29.8620770331       41.4253928973       20.2876407479
Hgd        14.6234037100       26.8954261161       19.3046455956
Hgd        16.8861835807       29.1771644193       19.8054102485
Hgd        22.8704640910       32.1898104891       22.8256714036
Hgd        25.9781686523       35.2771739399       22.8646654748
Hgd        29.2616996185       38.2963975460       22.8215254232
Hgd        32.2572925665       41.2491816470       22.5777970838
Hgd        41.3594836037       29.1600597308       25.9177356561
Hgd        16.6819259591       25.9357657807       23.1667707183
Hgd        19.7870502831       29.0758418365       22.8418221319
Hgd        26.0811734632       35.1599746762       29.0038895378
Hgd        29.1418612510       38.3270662191       28.9605413498
Hgd        32.1930944337       41.4293766626       28.7728641381
Hgd        41.2605486705       28.7135983082       32.0716994541
Hgd        13.5937938367       23.2280308116       28.9872123183
Hgd        16.7538023643       26.0570571183       29.1289515770
Hgd        19.7996599369       29.0769683401       29.1919866748
Hgd        22.9400746868       32.1162395904       29.0761018986
Hgd        29.0243696133       35.2278635187       32.1593108100
Hgd        32.0823416928       38.3934940261       32.1995063673
Hgd        34.5513829528       41.0802715663       31.8366933285
Hgd        35.2981059781       29.0637173557       32.2104698663
Hgd        17.0015665033       16.7810232418       25.9144320707
Hgd        13.9202144657       20.2086905971       31.0144696006
Hgd        16.7508594176       22.7429598237       32.2018216100
Hgd        19.7538878709       25.8475777277       32.2929242395
Hgd        22.8364002455       29.0919240953       32.2595896613
Hgd        26.0036680332       32.0888719053       32.1740278649
Hgd        32.2304931341       35.2353370735       35.3918952074
Hgd        35.0244829633       37.9410661266       35.2188861356
Hgd        32.2027222833       22.8933623933       22.8116775089
Hgd        25.9452176783       16.8293616911       35.2225140548
Hgd        17.8385087286       19.1686703599       35.6131438597
Hgd        19.7039191703       22.6138321118       35.5915533167
Hgd        22.8422666364       25.9803550498       35.3005381230
Hgd        25.9683866895       29.0314994918       35.3285676867
Hgd        29.0822795462       32.0994689183       35.2829681766
Hgd        35.3059733835       35.3682456997       37.7391054078
Hgd        32.1811299554       19.8552237186       25.9863299421
Hgd        38.3933076586       32.0267226633       20.0312961641
Hgd        20.0579867465       19.1973305419       38.3821468009
Hgd        23.0398412672       23.0575255472       38.2602184686
Hgd        26.0672416633       25.9723979350       38.3961482825
Hgd        29.0893771756       29.0528751631       38.3882590757
Hgd        32.2398596436       32.1622094651       38.3647143251
Hgd        38.3274611870       32.2247837813       32.1665766776
Hgd        29.2030431268       13.7351643653       29.0669214656
Hgd        31.9344701232       16.6610907747       29.0836895062
Hgd        22.9311321933       19.6200398039       41.0146107563
Hgd        26.0117737590       22.6887953405       41.4632846811
Hgd        29.0595691898       25.7839024853       41.4447388506
Hgd        32.0029822372       28.7261954222       41.2930351395
Hgd        34.9503478773       31.8394091323       40.8018526913
Hgd        13.6871899157       36.9598027695       26.6070313897
Hgd        13.6355212475       35.2963492338       29.3368066908
Hgd        16.7807345021       38.0653440260       29.1690026047
Hgd        35.2875984300       22.8953338304       19.6371372811
Hgd        38.2219888290       25.9810403005       19.8054196416
Hgd        32.1463497163       26.0453544536       19.7549195737
Hgd        32.0255775371       16.6292054621       34.9865693772
Hgd        32.1023515350       26.1829908766       13.6118468858
Hgd        22.9478300202       19.7730251204       29.0858309503
Hgd        40.4792534325       28.2394672323       19.2585366395
Hgd        32.1068473473       32.5210920819       13.7198384722
Hgd        38.0399721188       22.5193726326       35.2170278152
Hgd        41.5227338967       31.8377643915       29.0161843097
Hgd        38.1094071446       38.2696599955       25.9288406688
Hgd        28.8247308677       23.0609888738       13.7638943485
Hgd        31.8962902521       13.5898964237       25.9804561042
Hgd        35.2744944081       16.9266227281       25.8303142081
Hgd        41.4375167538       19.7292641084       29.2623629916
Hgd        35.3901456466       26.0635350185       35.3869776719
Hgd        35.0561024337       19.5140508675       35.0244241915
Hgd        35.3476021955       19.9864898850       29.1357388860
Hgd        41.2848068189       22.7937207708       32.4924250688
Hgd        32.2903763201       29.2579571045       16.8059195564
Hgd        35.2088242148       28.9873035959       26.0590960948
Hgd        38.1054645478       29.3393365010       16.7936723738
Hgd        24.1282537587       13.8647365063       34.8491845019
Hgd        38.4273678940       31.8961445503       25.9227025810
Hgd        41.5568769022       26.0903691513       23.2041206170
Hgd        17.1578883597       35.1884578408       19.8642369721
Hgd        19.5659679594       37.7288591905       20.0316478183
Hgd        23.0224260142       40.7592570382       20.4374838445
Hgd        38.3812108960       25.9433997413       26.0802325610
Hgd        29.0596351304       25.9704702888       22.8204397637
Hgd        13.9988042507       31.1075127931       20.1574667507
Hgd        19.6593460653       35.1284841548       22.8208905279
Hgd        22.8265983422       38.2885931553       22.9304243236
Hgd        26.3355530936       41.2358303677       23.0103995911
Hgd        35.1004592853       16.6937719399       31.9215497979
Hgd        13.5728031059       29.0048441071       23.2165565594
Hgd        16.6706787264       32.0759977694       22.8232479907
Hgd        22.9141918558       35.2190448193       26.0345035393
Hgd        26.0845230793       38.3112846501       25.9559859685
Hgd        29.1887446214       41.3912951386       25.9036427139
Hgd        13.7735469685       25.9199362683       25.9106368660
Hgd        16.7392972295       29.1237324098       26.0861280212
Hgd        19.7994971320       32.0886621545       26.0142082974
Hgd        25.9414005094       38.3885374134       31.8962251929
Hgd        29.0267665358       41.5114842171       31.8319770107
Hgd        38.3569856658       28.9689353375       29.1084802985
Hgd        13.8270723594       26.3190122546       32.0435266894
Hgd        16.7618294658       29.2263190471       32.2425364888
Hgd        19.7870958192       32.3119988199       32.1033667608
Hgd        22.9865774010       35.2624586824       32.0977814624
Hgd        29.1490308907       38.1822020279       35.2180936233
Hgd        31.0779171468       41.0690429227       34.9298469539
Hgd        29.0832479756       22.8767389398       19.7139224930
Hgd        25.9949058967       29.0991435212       22.8202759210
Hgd        29.1489182982       32.2101714819       16.6811696941
Hgd        14.1756262695       23.0080564976       34.5242729599
Hgd        16.8368810326       25.9028227753       35.4484531010
Hgd        19.6652802452       28.9306309489       35.3766134523
Hgd        23.0077489410       32.2515445069       35.3410491309
Hgd        25.8852252656       35.0457389698       35.3099545769
Hgd        28.6385956764       19.2049032918       13.3376992904
Hgd        31.9248702701       20.1378636399       14.2848814547
Hgd        19.5721773957       26.0787163347       38.2649813997
Hgd        22.8985816972       29.2033325658       38.3382509328
Hgd        25.8857118675       32.2777418203       38.2157086634
Hgd        29.1124912078       35.2791927244       38.3979320774
Hgd        34.9373148605       23.4928112658       13.9480609699
Hgd        37.2181917888       26.8194474314       13.7395475824
Hgd        29.2115691623       19.9309754362       35.2913091081
Hgd        20.0666414685       23.2073901180       40.6782813686
Hgd        23.0459822494       26.2358757930       41.2872992666
Hgd        25.9496572984       29.1178581056       41.4196964888
Hgd        28.9291338326       32.0556816998       41.4189073164
Hgd        31.6229116758       34.8877188843       41.0863461745
Hgd        19.7702092483       13.6299820132       25.7117806573
Hgd        25.9164098740       25.9448848680       13.6101535893
Hgd        25.9673247931       32.2438157356       19.7193717671
Hgd        29.1116090192       32.2210431664       22.7930017445
Hgd        25.2283739467       13.6389971966       20.1962114630
Hgd        32.1515930506       32.1116013113       25.9907661870
Hgd        22.7456713801       16.8647721872       25.7617314417
Hgd        35.2527838386       32.1280327146       29.0395912976
Hgd        16.6721628595       23.0848149282       20.0309340243
Hgd        25.9289052690       13.6468370465       25.8306304833
Hgd        35.4256954355       19.8014305030       17.3107323047
Hgd        32.1118766321       19.7595584681       32.0661645599
Hgd        32.1218587543       29.0747507990       22.8921238479
Hgd        35.3032261901       22.7231943501       32.0857382940
Hgd        26.1519972235       13.4879996702       31.7678167550
Hgd        25.8132468192       16.7633876525       22.7956714133
Hgd        25.9498046890       22.9061020033       29.0852825084
Hgd        26.2509245895       32.0471488283       13.5970334377
Hgd        41.4540691590       25.1704579014       34.8100647552
Hgd        32.3214038060       35.2772848973       22.9551227070
Hgd        29.2624550320       16.9037851070       38.2106935750
Hgd        28.7956831120       13.4320920438       19.1611639442
Hgd        35.5171153389       17.4337493516       19.8601606490
Hgd        37.9807798261       20.0763615426       19.8045224460
Hgd        41.1118206225       24.0402570458       20.1119632762
Hgd        41.4395464782       25.8854641774       29.1650323008
Hgd        35.1362380856       22.5061193122       38.0467905726
Hgd        20.1815115179       41.0818919207       24.0455710656
Hgd        35.2885925153       32.0925683930       22.9586650384
Hgd        35.2782574661       26.0747600423       22.8892485714
Hgd        29.0111267621       19.6157310281       16.7814530235
Hgd        38.1866245957       35.2174055145       29.1830941785
Hgd        29.1735243997       16.6179063080       31.8442412396
Hgd        13.9560431865       34.5281897123       23.2302482810
Hgd        19.8164746162       38.1458721853       25.8983423112
Hgd        23.2313400425       41.4874634217       26.0857352861
Hgd        29.0858451450       25.9904681530       29.0887330284
Hgd        29.0890442102       19.8043487647       22.8265633852
Hgd        35.8147918068       14.6553217420       28.1048198459
Hgd        38.3135727395       16.9644576016       29.0858716537
Hgd        22.5653788103       19.9317344123       17.0061733653
Hgd        13.6254186968       32.1471461470       26.2819092067
Hgd        16.6302518867       35.1954140864       25.9174253573
Hgd        23.1817742570       38.3915670399       29.1434362931
Hgd        25.9300726540       41.3063510347       29.1590429645
Hgd        19.7809804457       29.1472712030       16.6138986256
Hgd        13.6833155939       29.1639745362       29.1594746275
Hgd        16.8766103938       32.3298542648       29.2952119292
Hgd        19.7619947171       35.0607357210       29.1716301338
Hgd        26.8857633289       40.4376847527       35.7670604204
Hgd        32.0812370978       14.3384826333       20.3540599181
Hgd        41.1359359114       20.5485359770       23.1898819545
Hgd        22.9973663178       32.2048810672       16.6385741023
Hgd        13.6598196479       29.8221119789       34.8125184136
Hgd        17.0395679961       32.4914708211       35.2195243378
Hgd        20.0414777468       35.5014526878       35.0559167932
Hgd        23.0777625608       38.3754542460       35.0239768631
Hgd        38.2494066043       29.0387250646       35.4696895805
Hgd        28.2638487970       14.5766686753       35.6972740836
Hgd        13.3533688242       26.2665134109       35.8277330475
Hgd        19.9431985014       32.4945967976       38.0417718419
Hgd        25.8155858227       38.1000095089       38.2273297230
Hgd        22.9558448827       13.5898146596       28.7160669168
Hgd        17.8342080732       28.3469660181       13.7391772765
Hgd        19.1806955711       26.4707344548       41.7546013444
Hgd        20.3727429619       29.9018931046       41.4513801232
Hgd        22.6940710787       32.2388824015       41.2962287992
Hgd        25.8789972157       35.2691056603       41.4189471049
Hgd        20.2140333086       31.6763488450       13.9291774822
Hgd        25.9780074863       25.9897200951       19.7197734214
Hgd        13.7915968224       32.2080905100       32.5115347148
Hgd        19.9884681345       19.7358354161       25.9096582299
Hgd        34.9571384268       14.0378849956       23.9118020269
Hgd        41.3946596666       18.0860759718       26.5139293877
Hgd        25.9838614706       35.5107437933       16.7250192078
Hgd        20.0146811031       38.3514202446       31.9669197652
Hgd        25.9738753588       16.6970495254       28.9255655526
Hgd        19.7791093468       25.8300024539       13.6148038274
Hgd        32.1727895142       29.0255103608       29.1457256159
Hgd        40.4321318806       35.7712744390       26.8981065113
Hgd        29.0654385195       29.1121624569       19.7307352731
Hgd        35.4992162136       35.0523633317       19.9880541403
Hgd        22.5732910182       17.0441216079       19.8113756017
Hgd        25.8267065260       22.9069330784       16.7029778548
Hgd        16.9478317571       25.8216495586       16.8061875725
Hgd        22.8931818461       29.0863935008       19.7545324286
Hgd        22.9231674660       26.0132324474       22.8972288719
Hgd        25.9387334398       19.8068674811       25.9023926380
Hgd        26.0769414279       19.7580890738       32.1370444660
Hgd        29.0876480479       22.9178134544       32.1278833440
Hgd        32.2400386386       25.9268323671       32.2583227916
Hgd        35.2891986532       22.9658202799       25.9663830262
Hgd        22.8211696064       22.6612145425       13.7471768264
Hgd        22.3369030964       35.8497288203       14.7080211607
Hgd        32.2645035287       32.0844919277       19.7120614027
Hgd        29.0108778192       16.7558916119       25.9073876324
Hgd        38.2222994695       22.7313242711       29.2568047049
Hgd        32.4394096536       35.1867271932       16.9865865548
Hgd        26.0550115907       35.7590458605       13.1966392651
Hgd        18.1311689955       13.6754803574       28.4555683108
Hgd        28.3703567894       37.2512512546       41.2581833209
Hgd        26.7049243828       17.7496850092       41.2787561800
See        37.0400898898       21.7352589199       18.0139111179
See        40.3707381027       36.7851212266       29.4687213954
See        36.7009307313       27.6118515829       18.2789067202
See        18.2734993276       40.3536427755       25.6474285662
See        24.4498813741       30.6592408950       21.2773800037
See        33.6401859434       18.2998606694       30.4208346550
See        27.5347740401       27.5334304635       21.2651052461
See        15.1568766254       24.5034425042       18.2859367027
See        21.3406982530       24.3910535184       30.6867867844
See        36.9101831812       21.4931417089       24.3899316302
See        30.5631153565       18.3001789067       27.4393295497
See        36.8047639974       30.5145992224       27.5758524361
See        24.4288327294       27.5566998149       30.7090682510
See        25.7282204954       14.6155302086       36.7501925235
See        24.4551417669       15.0614046580       30.4156563780
See        21.3391506794       27.4515479452       15.1160807773
See        24.4323402886       24.4860060962       27.5534550185
See        27.4711265147       18.2504164733       24.3066619583
See        30.6995443612       36.6732402554       21.2797677334
See        18.2421129467       39.8347694051       30.5542685124
See        36.8103650642       18.4460274950       27.4449898320
See        27.5759791766       30.5546137371       30.6451366493
See        24.6096578051       36.7535174442       33.6111773042
See        20.1021248234       32.4046807746       40.6443811833
See        30.6952557849       33.6880605270       24.3886008815
See        18.4613557449       14.9059158780       30.7058213602
See        36.7172155528       24.3278323633       33.7718000123
See        36.8565252073       27.4468224347       30.7252849197
See        21.4697976395       33.7474106484       33.6752035417
See        15.2373307806       18.2356228516       24.5207606259
See        33.7211371626       27.6641000290       15.1231249615
See        30.5777248629       15.2197778614       24.3015789872
See        24.4784748753       27.5672914318       24.4217137387
See        24.5518636708       36.7553403177       27.4983096474
See        24.4567601923       21.3335383398       30.6604893903
See        18.3896245912       27.5343311633       18.2668386798
See        36.8481235375       24.3828064915       27.6258470125
See        21.3142197288       21.4603126719       21.3835720248
See        33.7509567937       21.3584581689       21.2216056708
See        24.3156897048       15.1655849089       24.3130884441
See        34.0106993677       36.9322958772       24.1460255041
See        33.7681544665       33.6957363900       33.8134465792
See        18.3089042740       24.5954271136       21.4453855173
See        37.0016860337       24.5907240331       15.0303769486
See        20.8288777998       18.3944357622       18.3174334776
See        24.4421737100       33.7098757843       24.4080159872
See        27.5286981557       18.2504736722       30.4632958999
See        30.6386263319       21.3589771825       24.3721758741
See        27.6180652712       36.8136566233       24.3526462759
See        30.6758381063       30.5985280383       39.9458022264
See        27.5421385723       15.1032315864       27.4194297709
See        33.7442757127       30.6012819068       30.6627558257
See        21.3618011327       33.6500416957       27.5480615322
See        21.4820688306       18.1520456621       30.6587635828
See        27.5790308212       18.3530481199       36.7339986555
See        30.7806814717       39.8730626627       24.3627874908
See        33.7165037137       24.5160235691       18.1689148448
See        33.7910065864       33.9208167517       39.8451012993
See        18.2407338365       24.2534109840       33.8693716568
See        14.8825822089       24.3631979794       36.6321310050
See        30.6436801748       30.5466580474       27.5502312628
See        29.2219519041       17.0507796329       40.7889733044
See        33.3834312126       36.9860803555       37.0220437510
See        21.3224052095       33.7235076830       21.2557666109
See        15.2178190526       24.4924665614       30.7202940442
See        40.0695884049       21.7035845554       21.0446436056
See        30.8962977433       21.0701571816       36.9809062001
See        30.7194268136       30.6838343313       15.1270173157
See        21.4805131043       21.4050459250       39.6188565050
See        33.6883745159       27.4396584940       27.6015707983
See        30.5083904474       18.2539425656       33.5625077277
See        18.0837001538       24.7586693897       40.1720119569
See        33.8580242826       27.2895896280       39.9941947723
See        24.4513115456       33.8451200679       18.1908977091
See        30.6398216290       24.3962057108       33.7525999820
See        24.4188000914       27.5205867620       18.1744620968
See        14.9522903458       36.6600288835       24.3735470544
See        21.6941875535       39.6987209722       27.3448213508
See        27.5401940477       21.3207118340       21.2528412456
See        36.7923916318       30.4820720123       21.4486814570
See        15.1398652155       30.6800646800       24.5873312172
See        27.5486167519       27.5203519303       15.0675152067
See        25.8711794926       37.9058291313       40.8078330660
See        21.2286422812       27.7242795673       39.9766378440
See        36.8599560859       15.2026939360       30.4704394120
See        24.4390975277       36.8613688185       21.3311390333
See        30.6543959580       24.4417756058       15.1076564495
See        15.1479868685       27.5534910203       27.5805798254
See        18.4448697533       18.2710103974       27.5933373582
See        17.9617779977       27.7206074103       36.9931897054
See        14.6882052593       29.4505787158       18.2672587246
See        39.8951295834       30.5301982153       30.7119267679
See        36.7919982321       37.1672088299       33.4301617166
See        18.4318830418       21.2426815463       30.7584447430
See        36.9347368070       30.3199729147       40.1966386069
See        18.3740649615       30.6997262898       33.7713992497
See        15.3909839002       21.6875511681       27.7374298789
See        18.3206590804       24.5210571472       27.5939889457
See        27.7401166077       39.9243676503       21.1710054819
See        33.7071783630       30.5423578242       24.4810536866
See        21.4074220878       27.6002523650       27.6316151141
See        18.1882546056       33.5777201751       24.4573580160
See        18.3237018945       21.4523303654       24.5952530011
See        40.8931595466       17.1156763652       28.9289268154
See        18.2599222018       27.5353580387       30.7817078738
See        24.5008922768       30.6076260390       27.5135310071
See        39.8961205577       34.1117115645       33.4172084595
See        30.5849918188       21.3615311142       30.5416973667
See        24.3949215183       21.3522633818       18.3208512444
See        33.9504704031       30.9030671692       18.0435597190
See        33.7876377062       39.8590786900       27.3516293641
See        15.1751951797       33.7442021252       27.7323847130
See        27.5230827673       30.6655955849       18.1757278567
See        38.1394236370       34.6901186655       20.4207676972
See        30.8503362878       14.9322839213       30.7196055959
See        40.3902970910       25.6789452707       18.2247228030
See        15.0446460966       33.4297055460       21.0820513164
See        29.4428396702       40.3418543899       36.8144213854
See        21.4459985969       37.1754905518       18.3304917980
See        24.4953041849       39.8982047152       36.7739050182
See        21.3282652848       36.6297892250       24.3774900566
See        27.3935459884       15.2869728012       33.3113652107
See        39.9927778085       27.5002080804       27.5722517047
See        18.2884998474       36.6154342919       27.5070629992
See        21.8025131745       14.8934849167       33.9157479449
See        24.2811717285       40.0995592233       30.8035452347
See        36.7425967479       24.4381549160       21.3232148187
See        14.4390981241       32.3316145643       35.1147587422
See        30.7085756673       36.7935285981       27.4217265843
See        21.3612950166       30.6666042036       30.6808044823
See        27.5795747429       27.5181035828       39.9894360199
See        33.4221739527       15.3683179244       27.2625706936
See        24.5278004155       33.6613310422       30.5869714591
See        18.3002665610       21.0728501040       37.2424387697
See        30.6829249577       36.6846642340       33.7107532039
See        21.2436791744       24.4963719019       36.8640632188