    1847
 i =      108, E =    -72099.9340789581
 Ga        37.9285347930       20.7038204033       42.8875684414
 Ga        26.4199162062       37.7503012732       43.2320830246
 Ga        34.9327825158       20.8778861400       29.3099309881
 Ga        37.8313065723       37.7482605961       32.1288233565
 Ga        32.1320208326       20.8672345380       20.8683450318
 As        41.8092045542       19.5152150307       28.0406400271
 As        41.8292759080       19.4589901920       33.5456538339
 Ga        32.2078565574       29.3185315916       34.9442804104
 Ga        43.3066642670       20.9597029481       20.9617390592
 As        42.0472741667       19.1093132040       39.2890384158
 As        33.5891850069       39.0499016784       16.6217643750
 Ga        32.1325978301       20.8757150694       26.4939818404
 As        33.5259536066       38.9970731062       22.2431141445
 Cl        42.0254107182       22.7338409009       14.1129376594
 As        41.9792453482       22.3790484229       19.5292558418
 As        41.7894094170       22.3548606668       25.1853884785
 As        41.8505010349       22.2350629787       30.7949206852
 Ga        37.7515837398       37.7526826859       26.5002891197
 Ga        32.1290175985       20.8800196801       32.1209067060
 As        41.8335638442       22.1605352946       36.3058598000
 As        42.1262610609       21.8167365562       42.0550006406
 As        33.5264465512       39.1160477541       27.8661037740
 Cl        44.4512029494       25.1261036858       25.0865775212
 Ga        34.9402496881       20.8741754194       34.9290196068
 Cl        41.8434835517       25.6200067107       11.1655820832
 As        41.9623428824       25.2423169863       16.7149949260
 As        41.7890544953       25.1928912125       22.3541913702
 As        41.8244787206       25.1310237435       27.9213417152
 As        41.9115665800       25.0078114564       33.4873136449
 Cl        44.5088344419       33.4476662475       27.7432223088
 Ga        43.0595694736       20.9606693893       26.6511112821
 As        41.9859846880       24.8889893338       39.1534818715
 Cl        41.4552066275       24.2816835296       44.9022174971
 Cl        41.3634555875       28.7123298838        8.1195543435
 As        41.9134323032       28.0976750062       13.8682725379
 As        41.7860007818       28.0401209275       19.5285272656
 Ga        32.1350119501       29.2392740864       40.4959978914
 As        39.2745814735       36.5804255221       13.8039557273
 As        41.8182965379       27.9396832242       25.1177744661
 As        41.8265540793       27.8277758487       30.7018088473
 As        42.0210604166       27.7691522367       36.3014990082
 Cl        41.8622294243       27.3993473216       41.8772175884
 Ga        29.6308874765       12.3420297604       43.1491985024
 Ga        35.0252582782       37.7512705382       35.0117916448
 Ga        32.2095191856       20.8629785771       42.9850002076
 Ga        35.0254150901       20.8671542171       40.3255746672
 As        42.0738275375       31.1323050304       10.9433354597
 As        41.7913581853       30.8387382450       16.6993203987
 As        41.7257130140       30.7876465308       22.2675744589
 As        41.8027632171       30.7075926176       27.8371133021
 Ga        34.9501167770       20.8649345038       18.0502405217
 As        30.6392596201       19.5152847009       11.0686242593
 As        42.0044162701       30.6042919795       33.4766709174
 Cl        42.0105641989       30.3194768458       38.9479860396
 As        36.3442099975       27.9583115967       13.9224706842
 Cl        44.4791229927       28.2873920636       16.9728911032
 As        42.0615385524       33.8904977726       13.7312971359
 Cl        45.0790443779       32.8550082769       32.8068658492
 Cl        41.3339934647       44.9918174363       24.3432144269
 As        41.7207266213       33.5929086225       19.4546962320
 As        41.8202821964       33.4937423515       25.0246477313
 As        41.9524711688       33.4770571841       30.6528008713
 Cl        42.0192467135       33.2046968160       36.0620931917
 Cl        30.1325519199       17.1545621015        8.0742616473
 Zn        32.2077502882       32.1322881074        9.8496142777
 Ga        26.6538481831       40.5009572893       12.4253496448
 Ga        40.4017633699       26.5825381647       23.7526013431
 Ga        34.8611603531       23.8425855482        9.6851773021
 Cl        41.9098971830       36.2667515820       16.8112518803
 As        41.7888555887       36.3708095542       22.1582698592
 As        41.9621115112       36.2862316113       27.7854226801
 As        39.0635284878       36.3929278253       19.4096232140
 Cl        41.9490848634       36.1082683946       33.2159229626
 Ga        26.5768675209       40.4875404870       18.0474592406
 Ga        29.6335630244       40.5780903551        9.7740327582
 Ga        34.9510896000       23.6808598030       15.2385426458
 As        42.0111171712       39.3780418704       19.1557604339
 As        39.0864954810       36.3432578936       25.0431341118
 As        41.9511365435       39.1009004867       24.9073275333
 Cl        41.9338288127       38.9783569548       30.2886134721
 Ga        26.5093023694       40.4036020046       23.6855934348
 As        39.1959115533       36.3357131996       30.6704552696
 Cl        36.1884229271       28.2407910771        8.5878229336
 Ga        38.0779534152       40.3268197841       18.1494752632
 Ga        34.9393761108       23.6784412360       20.8663088493
 As        42.0663078008       42.1022161487       21.9079601534
 Zn        43.2291688165       20.8634518656       32.2029988546
 Ga        34.9268002290       23.6845281784       26.5007253661
 Cl        41.8339962939       41.8457094062       27.3923257153
 As        36.2958100518       27.9162351169       19.4821629445
 Ga        42.8974367486       20.6973921187       37.8482776369
 Ga        34.9412708623       23.6917909958       32.1286868634
 Ga        32.1303765204       32.1184361880       15.3911263852
 As        33.5810745058       39.1546702268       33.5524784962
 Ga        40.6536894295       32.3670246785       12.4246999305
 Ga        40.3387864846       32.1424313080       18.0545489536
 Cl        42.0233700321       16.9787010400       19.7967028386
 As        39.1989408214       13.8744055561       30.8745252504
 As        36.3409337438       30.8605672661       11.2468161736
 As        41.9733500625       16.7058096677       25.2411951121
 As        39.2681394209       13.7916911481       36.5850191920
 As        36.3226343862       30.7387482019       16.6900172886
 Ga        29.2360566263       34.8519763415       43.3159450430
 As        41.8264718473       16.7069759326       30.8311101232
 Cl        33.2767613989       39.0765749245       39.0592904893
 As        36.2458857929       30.7220023616       22.2825642941
 Ga        37.7619911969       34.9495120761       29.3225679441
 Cl        30.4684155008       22.5256105975        8.6290828271
 Ga        37.7498475590       23.7584458046       12.4300610699
 As        36.3009160207       30.7296782692       27.9190633151
 Ga        32.1261635046       32.1216722782       20.8780285119
 As        30.7032908368       22.2960161830       13.9073205074
 As        30.7169617648       22.2811921089       19.4735759059
 Ga        32.1434448853       20.8707380579       37.5967062671
 As        36.3655077297       30.6959490845       33.5606554031
 Ga        32.1370556251       32.1272251058       26.5136054152
 As        30.7162373414       22.2815100064       25.0937941455
 As        30.7187278301       22.2825941222       30.7153052947
 As        30.7384751763       22.2705599803       36.2329918393
 As        36.4010853980       30.6527663440       39.1908594176
 Ga        32.2063493046       32.1352723932       32.1959637524
 As        30.7913491936       22.2614121548       41.7223722337
 Ga        29.2407376510       15.2464285168       12.4343305583
 Ga        29.3848361313       40.4158107704       15.1665757566
 As        30.6983388370       25.1852367382       11.2074661582
 Cl        35.8628105869       30.0893502242       44.9423852063
 Ga        26.4330231834       40.3369446162       29.2408787151
 As        30.7106129678       25.1044427632       16.7121439297
 As        30.7174801416       25.0911416732       22.2854791552
 As        30.7174621052       25.0939978120       27.9083006696
 As        30.7402069028       25.0841300924       33.4853709375
 As        30.7465401930       25.0866778604       39.0196231320
 Ga        35.0102678601       23.6882740792       37.6725068907
 Cl        30.6065048457       24.8441439857       44.4418641788
 Cl        30.5655126923       28.1109936044        8.6017955391
 As        30.7217142543       27.9311782321       13.9901592098
 As        30.7118899445       27.9130679817       19.5201297114
 As        30.7161462855       27.9062554716       25.0965576283
 As        30.7394276458       27.8998272480       30.7090946897
 As        30.7745953321       27.8922813879       36.2947196182
 As        30.7010724927       27.8018221634       41.8224052696
 Ga        29.3190587991       15.2373743799       18.0549401279
 Ga        29.3125399128       40.3312806605       20.8016713485
 As        30.7961993160       30.7655620116       11.2230910340
 As        30.7191812230       30.7190982689       16.7620632784
 Ga        34.9373037720       18.1207465041       32.1262769912
 As        30.7269697964       30.7254202320       22.2977514288
 As        30.7367190595       30.7110506076       27.9028796140
 As        30.7767619515       30.7125681444       33.5454704773
 As        30.7590666163       30.6881213683       39.1029947283
 Cl        30.4584062540       30.4353720759       44.4135951189
 As        33.8775794395       39.2860340678       10.9548542818
 Ga        29.2989728300       40.3458793669       26.4204562311
 Cl        30.7405734295       33.5660112079        8.5611255993
 As        30.7589288029       33.5207090543       13.9926443745
 As        30.7257981908       33.5101143679       19.4871924725
 As        30.7244412018       33.4976151341       25.0989328422
 Cl        33.2464630400       13.9820785246       13.9856095165
 As        39.3549063507       11.0165022249       33.8960879290
 As        30.7839574210       33.5171471604       30.7469923137
 As        30.7714038806       33.5223028941       36.3609616829
 As        30.6499728563       33.4224102249       41.9616992396
 As        33.5301760922       13.8333333364       19.5203175097
 Ga        43.1326998021       34.9403205845       18.1353645325
 As        39.2035464951       22.1186713607       39.1363561644
 Ga        29.3189228344       15.3147280005       23.6890164821
 Ga        29.3247953322       40.4301370646       32.1221943038
 As        33.5380713459       13.8950806313       25.1548694142
 Ga        34.9331897251       43.0662650413       18.0617987658
 Cl        38.9588499091       21.9771209647       44.3810073985
 As        30.8467125583       36.2939387707       11.2157906630
 As        33.5684993051       13.9526636838       30.7801514031
 Ga        34.9517931680       23.5974266271       42.9824312216
 Cl        38.5678591453       25.8702165837        8.0138127267
 As        39.1679454882       25.1807109306       13.8373562794
 As        33.5931248937       13.9133931132       36.3376530066
 Ga        43.1460806495       40.6564553335       23.4403004347
 As        39.1220223154       25.1382438354       19.4814617210
 As        39.0520380336       25.1160014153       25.1084810164
 Cl        27.4148483835       11.1197626870       11.1814610250
 As        39.0744932009       25.0702645206       30.7215912279
 As        39.1586952286       25.0426552138       36.3396149258
 Ga        34.9422842462        9.9425177844       34.9438756796
 Ga        43.3050226462       23.8395424909       18.1382969905
 Ga        29.3168642054       40.5643510794       37.7579318057
 Ga        32.2101244165       32.1287764734       37.7626510846
 Ga        32.0531690737       31.9693814247       43.3009948614
 Ga        40.5707493305       18.0567935063       20.8832743837
 Cl        41.8576571460       16.7185075394       36.2843592320
 Cl        39.0529583406       16.8890460031       16.8797522092
 Cl        36.3716432989       33.8212026793        8.7473507262
 Ga        37.8313356051       29.2341200045       40.5714531012
 As        33.8904253935       41.9871509289       13.6494582094
 As        39.1843635439       16.6598763875       22.3250520866
 As        36.3778786332       33.5909881195       13.9578299626
 Ga        26.5069635214       40.4260333606       34.9500051688
 As        33.5545020841       41.7094142026       19.4115035301
 Ga        32.1986654517       34.9324565752       12.6537653860
 As        39.1142013022       16.6627591466       27.9641542114
 As        36.2966607693       33.5452617179       19.4639351418
 Cl        33.4270259522        8.4946063980       25.2914589734
 As        30.7459339759       36.2987688299       16.6867982020
 Ga        37.7606045185       23.6801538852       18.0482065879
 As        39.0945329657       16.6679163201       33.5917786252
 As        36.2916447076       33.5259922561       25.0828025028
 As        28.0431257954       33.4854162386       11.2669731397
 As        30.7181822852       36.2443244376       22.2803568535
 As        30.7402522106       36.2794279180       27.9186548526
 Ga        26.4234860156       40.5039390922       40.5636727291
 Ga        37.7603064692       40.4885176675       23.6209519909
 As        36.3687768709       33.5338978740       30.7469355274
 As        27.9165037439       33.5210784766       16.7121825396
 As        30.7804340289       36.3317575431       33.5575215023
 As        30.7357763135       36.3290192025       39.1972927660
 Cl        30.1563707952       35.8269242553       44.9275545198
 Ga        32.1287172379       34.8802224962       18.0677236931
 As        36.4179552184       33.5108924635       36.4015231379
 As        33.4655931847       41.7928649969       24.9779918299
 Cl        31.0194653229       38.8655908712        8.5962997351
 As        30.8759759468       39.1299634077       13.8075245022
 As        30.7623611942       39.0006441035       19.4544324801
 As        30.7246008995       38.9972795709       25.0535546655
 Ga        32.1297498122       34.8733854787       23.6910557781
 Ga        34.9415942445       26.5786805626       12.5062413093
 Ga        37.8390531634       34.9357835001       35.0069841242
 As        30.7371307672       39.0753214724       30.7116407223
 As        30.7336278560       39.1502568095       36.3770023048
 Cl        30.3461824750       38.9673348438       41.9539662731
 Ga        29.3251715007       15.3328280820       29.3132675490
 Ga        29.4791635271       34.8579093470        9.9333455967
 Ga        32.2001582722       34.9391797561       29.3745944036
 Ga        42.9803911234       34.9386131643       23.5986278547
 As        31.1312704863       42.0327182708       10.8816339651
 As        30.8287298077       41.7660755235       16.6249353118
 As        30.7353000642       41.7267309572       22.2159610478
 As        30.6559509768       41.7643970324       27.8342426639
 As        30.6639726355       41.9065639695       33.4546090275
 Cl        30.3289996442       42.0272191031       38.8943110430
 Ga        32.2158618237       34.9509215687       35.0179314572
 Cl        39.0756978210       36.1639308749       36.1877613817
 As        36.2692071790       27.8970098314       25.0938409301
 Ga        34.8474171906       40.2515176327       14.9098785567
 Cl        31.0156563756       44.3167518559       14.0256346268
 Cl        30.8541729044       44.3429823845       19.4737226105
 Cl        30.6908105189       44.3372386020       24.9829753555
 As        33.8679061362       13.6431688456       42.0232913287
 Ga        32.1309820396       34.8660181292       40.5832245571
 Cl        44.4006561670       21.9570256694       38.9250141018
 Cl        30.4775801235       44.3969561438       30.4652804827
 Cl        29.9530686377       45.0567592771       35.5972655872
 Cl        28.6736079132       11.6183710421       44.8852468209
 As        27.9057383495       33.4956843826       22.2822354021
 Ga        34.9536299445       18.0497761801       37.6744296787
 As        27.9306028485       33.4876346192       27.9182670808
 Ga        37.7634596482       40.5044036991       29.2405968248
 Ga        34.9494848656       40.3337742721       20.8572955779
 As        27.9738030277       33.5312953549       33.5314563739
 Ga        32.1396666760       29.3203465769       12.5980702550
 Ga        26.6595587021       43.2270837499       15.2364974384
 As        27.9278703586       33.5202140355       39.1182287080
 Ga        40.3337891132       32.2005154065       23.6926132665
 Ga        34.9412761455       26.4903222746       18.0591967476
 Ga        32.1275825079       29.3066764475       18.1292976595
 Ga        32.1228220953       29.3132553057       23.6931685203
 Cl        33.2181875770       16.9288216148       11.0336089182
 As        33.5197689801       41.9057522803       30.6426424554
 As        39.2000466581       24.8677391262       41.9360780496
 Zn        26.5783873807       43.1582843367       20.8855700800
 Ga        32.1377908062       29.3161016204       29.3179523870
 As        33.5133004908       16.6574620588       16.6615146018
 Cl        44.3700297268       31.0011910410       14.1205175826
 Ga        29.3162569183       15.3118368221       34.9402127552
 Ga        40.4917131459       32.1208167136       29.3133063704
 Cl        44.4327755271       30.6363048250       24.8564614960
 As        33.5300380347       16.6617364456       22.2936907552
 Ga        34.8744491519       26.4965101472       23.6859691111
 Ga        29.5680706277       43.1364976903       12.2740949428
 As        39.1177904614       28.1202058903       11.0834860032
 Cl        33.1725817352       42.0104574749       36.0201625073
 Ga        29.3956598288       15.2295180024       40.4204957709
 As        39.0995944506       27.9597762226       16.6717833296
 As        39.0223036335       27.9379945590       22.2982068515
 Ga        43.0769086815       23.8359946493       23.8387033088
 Ga        42.9865783221       23.6985060311       29.3824657258
 Ga        40.4136714590       26.5011118599       29.3191750465
 Ga        35.0161635970       40.5017354539       32.1288032955
 Ga        43.1353167512       23.5333526248       34.8704533240
 Ga        37.6853042828       23.6874358103       23.6842028699
 As        39.2507129613       16.4283067872       39.2288320524
 Cl        36.0581414305       33.1667346970       41.9878720397
 As        36.4045458437       25.0391297109       39.0890921151
 Ga        34.9429874291       34.9377155384       26.5128256456
 Zn        26.5032611923       43.1486040023       26.4880435966
 Ga        29.3099977602       37.6025163998       23.6773766180
 Ga        35.0268374033       34.9535812067       32.2063156954
 As        27.9039402672       22.2797329564       22.2852935001
 Ga        42.8967367186       32.2937071569       15.1533150239
 Ga        34.9337645982       26.5032907998       29.3199933980
 Cl        35.8243852663        8.0774164565       22.8993508836
 Cl         8.1025755708       11.6149545998       24.3559172794
 Ga        26.5045145305       20.8652769433       15.3227887524
 Cl        39.0446321332       19.7528017050       14.0088523615
 Cl        36.2772324112       36.3068708955       11.2021327575
 Cl        36.2064315245        8.5874741346       28.2363559474
 Cl         8.6274441508       14.0521833606       21.9952365707
 Cl         7.9704587754       14.4846106725       27.0920646604
 Ga        26.5044190043       20.8663574857       20.8803810526
 As        36.3431012104       36.3440490117       16.6660038055
 Cl        36.3713490238        8.6883011485       33.8381976456
 Cl         8.6697563283       16.6847535728       19.2271100059
 Cl         8.5645985242       16.8837850275       24.7393963144
 Cl         8.0587251762       17.1848867082       30.0733336355
 Ga        26.5037960684       20.8761112725       26.5042050891
 As        36.3140314098       36.3270093969       22.2603281867
 Cl        41.9993939908       14.1218131576       22.6852344263
 Cl         8.6627752798       19.2538158325       16.7057727828
 Cl         8.6530481335       19.4985185047       22.1310468714
 Cl         8.5143195050       19.5928481955       27.6932341968
 Cl         7.9209036907       20.1871179240       32.8268461828
 Ga        26.4947437376       20.8667365647       32.1225266398
 Ga        26.4251621381       42.9878225466       32.0389565824
 Cl         8.6429648271       21.9523711149       14.1198545071
 Cl         8.6701236569       22.1456630193       19.5351036939
 Cl         8.5640131895       22.4382142111       24.8430328283
 Cl         8.6033547861       22.5423851921       30.4598850298
 Cl         8.0684921658       22.9210975331       35.8320758469
 Ga        26.5064039401       20.8704370118       37.6662412392
 Ga        42.9846941407       32.2077534924       20.8729512965
 Cl         8.1009550609       24.2820586370       11.6899671525
 Cl         8.5881114174       24.7436543662       16.9590145299
 Cl         8.6813749226       25.0225276837       22.2886084594
 Cl         8.5995534982       25.0780620045       27.9305576102
 Cl         8.4953854006       25.3098070040       33.4342422089
 Cl         7.9783964266       25.9122982268       38.5334459698
 Ga        26.6565787935       20.9509284784       42.9870440670
 As        27.9053816994       22.2835765439       27.9100272334
 Cl         7.9590884169       27.0936036292       14.5440719903
 Cl         8.5947060699       27.6027957334       19.7588579971
 Cl         8.5670343100       27.9511020053       25.0534123351
 Cl         8.5614245577       28.1580239373       30.6124228484
 Cl         8.5713289330       28.2635613786       36.1412138638
 Cl         8.1043583183       28.6593592524       41.4049932149
 As        33.5249958230       16.7074136957       27.9220268104
 As        27.9044396557       22.2788373943       33.4940394596
 Cl         7.9553157997       29.9629056856       17.3893499502
 Cl         8.5922570996       30.4663356148       22.5384586165
 Cl         8.6831834500       30.7128048749       28.0334746446
 Cl         8.6563121731       30.8673436377       33.5267638799
 Cl         8.6415009046       31.0100631378       38.9626804027
 As        33.5467396435       16.6976013183       33.5108002865
 As        27.9673794926       22.2811541260       38.9890655323
 Cl         7.9843820445       32.8250217261       20.1779154748
 Cl         8.5968442989       33.2475757013       25.4586463110
 Cl         8.6433139585       33.4562333731       30.8856083268
 Cl         8.6799236917       33.7675967462       36.3248074044
 As        33.5976011586       16.6177667446       39.0623002252
 As        33.5288591144       11.1590041667       28.0212071987
 Cl        28.0283169998       22.2889390855       44.3168087503
 Cl         7.9571502336       35.6085437638       23.1085788851
 Cl         8.5327299503       36.0326222567       28.2826014041
 Cl         8.6840261679       36.2957848062       33.7531064354
 Cl        33.7302575066       16.6914593994       44.3209399893
 Ga        37.7604801371        9.7723669124       26.6647832011
 Cl        27.9365408704       25.0348277054        8.5721582493
 Cl         7.9514721284       38.4498285282       25.9254979913
 Cl         8.6778704116       38.8988314899       31.0325850290
 Cl        32.8200367904       20.1633461185        7.9820287457
 Ga        37.9282085760       10.1814412279       32.3013282495
 As        39.0439849788       27.9010071506       27.8922063784
 As        27.8742506590       25.1032219852       13.9915752354
 Cl         8.1038875482       41.3699292001       28.7225215193
 As        33.5146890020       19.4873151766       13.8344798226
 Ga        34.8657707755       43.0692759748       23.5349670016
 As        39.1699982654       27.8561064708       33.5353772411
 As        27.9050999300       25.0923992143       19.5095341907
 As        33.5275046721       19.4750280812       19.4741448220
 Ga        34.9643948036       26.5037294840       34.9411201616
 As        39.2350361776       27.8161787630       39.1698503655
 Cl        38.5619128049       27.0736880162       45.0481770408
 As        33.5305607862       19.4724719377       25.0952023300
 Cl        33.7663061516       44.3146772988       16.6841934426
 Cl        38.9349070110       31.0458376703        8.6542247933
 As        39.1723138812       30.8786480266       13.8614301371
 Ga        35.0179360030       26.4243129415       40.4919318185
 Ga        32.3036988527       37.8353341960       10.1055569623
 As        39.2426649719       39.2504173426       16.4232071494
 Cl        44.3651606542       30.8935318152       19.5559473217
 Ga        34.8623924956       12.6736561115       38.0113304411
 Cl        42.0326780498       19.8274122674       16.9607406311
 As        39.1817944813       19.4936203009       19.4901558945
 As        36.3401537520       36.3439910597       27.8932552354
 Cl        36.0493031890       11.0308466353       19.8224967369
 Ga        32.1272494612       37.6844656099       15.2538952193
 Ga        32.1250169345       37.5965203195       20.8662010423
 As        39.1267985365       19.4791355093       25.1335941991
 As        36.4234101839       36.3544643033       33.5684392247
 As        36.3068828962       11.0617523047       25.2331771480
 As        27.8356133083       11.1691516354       22.3367373295
 Cl        33.4369819421       44.3639258759       22.1126614661
 As        39.0632751067       19.4736494958       30.7512964957
 Cl        36.1765969865       36.1514734672       39.0993851943
 As        36.3794135871       11.2263577693       30.8372884166
 Ga         9.8558365397       12.3394790521       23.4401736234
 As        30.7605760523       13.9507690314       33.5453795764
 Ga        40.6485632604       32.0572863196       34.9404006351
 Cl        33.2531229700       44.4449110800       27.5909824104
 Ga        26.4208600246       43.2302317121       37.7587998255
 Cl        36.2491011003       11.1633997827       36.3148474354
 Ga        10.1154375657       15.0724522225       20.7068214105
 Ga         9.7677152825       15.2482809906       26.3470718648
 Ga        26.4966270744       23.6800021798       12.5992620747
 Ga        29.3093690613       12.5037432506       20.9428784108
 Cl        44.3535205458       28.0631004947       22.3051120925
 Cl        32.8469241233       45.0328855657       32.8220432191
 Ga         9.9375738801       18.0606539082       18.0719744806
 Ga        10.0216438280       18.0643872695       23.6012335723
 Ga         9.6834345924       18.1440742114       29.1568888653
 Ga        26.5031326124       23.6783735266       18.1331336267
 Ga        32.1358873034       37.6698719346       26.5070269280
 Ga        37.6760849861       23.6887717016       29.3216352735
 Ga        40.4859438837       26.5634907655       18.0579901427
 Ga        10.1120520476       20.6374311066       15.1560962689
 Ga        10.0197511071       20.8008778944       20.8705423656
 Zn         9.8459501062       20.9427717981       26.4222626660
 Ga         9.7015546875       20.9561378051       32.0426374292
 Ga        26.5056943257       23.6837344843       23.6887701043
 Ga        32.2104408004       37.7494100255       32.1918568811
 Ga        29.3217736467       12.5963346749       26.5650972546
 Ga         9.8554935048       23.3625569185       12.4127171372
 Ga        10.0043302386       23.5344468187       18.1294084364
 Ga        10.0148290748       23.6787273685       23.6893457037
 Ga        10.0132657151       23.7722451224       29.2333401681
 Ga         9.6821059006       23.8437397177       34.8607122226
 Ga        26.5002506153       23.6837343060       29.3142568649
 Ga        32.2011171085       37.7516001895       37.8283314292
 Ga        29.3976647579       12.5962371979       32.1145978816
 Cl        27.0744345970       14.4773111531        7.9662068072
 Ga         9.7725040652       26.3410254064       15.2563339066
 Ga        10.0123374674       26.4188873632       20.9574419172
 Zn         9.8519674732       26.4999811972       26.5141737386
 Zn         9.8461167024       26.5711207454       32.1102336502
 Ga         9.7725037420       26.6544771455       37.7585925866
 Ga        26.5042919453       23.6850802935       34.8724695605
 As        28.0324149893       11.1872772925       33.5067240798
 Ga        37.7544658567       23.6866316868       34.9334676451
 As        27.8430155772       13.8312520778       13.8650360905
 Ga         9.7652742045       29.2267345756       18.1328071923
 Ga         9.9401864976       29.2280821907       23.7798252528
 Ga        10.0178944865       29.3053562290       29.3824551218
 Ga        10.0212756672       29.4037263673       34.9477371578
 Ga         9.8582360907       29.5603210204       40.6628705399
 As        33.5273855600       19.4988994331       30.7177357230
 Cl        27.7457060549       33.4385998307       44.5066570609
 As        27.8737387682       13.8732750561       19.4953017241
 Ga         9.7641741542       32.0518997048       20.9588749832
 Ga        10.0130009705       32.0423206979       26.6438609526
 Ga        10.0173880322       32.1324016559       32.2109725135
 Ga        10.1225550980       32.2991558352       37.9271433576
 As        33.5384462477       19.4495547033       36.2798593643
 Ga        29.3157433127       34.9337647277       15.3228380345