    1259
 i =       89, E =    -42233.9986764437
 Cl        20.7056032892       42.8720333970       20.7041733933
 Cl        26.0020736630       42.4290622006       26.0109418014
  S        39.9830187488       17.5335787025       26.0942188314
 Cl        42.4394945268       20.4334510563       26.0211929555
 Zn        33.1051001445       21.7114553598       41.1868477704
  S        20.2023088628       34.6529774134       28.8227198427
  S        23.1217977751       37.5567533124       28.8242428640
  S        25.9739796502       39.9943121987       28.8432628832
 Cl        28.7703256422       42.4193790894       28.7697890337
  S        20.1980342684       31.8139904509       20.1397543479
  S        34.3243161264       40.2745906147       31.5980771727
  S        11.6958617298       25.6758122590       17.7187260263
  S        23.0978903712       31.7974259637       23.0672544241
 Zn        36.1200569329       21.4768739890       15.9904633928
  S        23.0762139501       34.6801250432       20.1586830645
 Zn        33.2002827094       41.1698179033       21.8000121352
  S        25.9882524308       17.2782372442       28.9082907454
 Zn        10.8218122428       29.7078053076       16.7201306507
  S        31.9348431016       14.4934389593       20.0971339167
 Zn        16.4005494253       35.6020075560       16.0586938279
  S        34.8116977373       17.3030957474       20.0462530553
 Zn        22.2952762845       41.1820149690       16.7196243064
  S        40.4108997912       30.1190585461       16.5900736451
  S        23.1187054549       26.0265188623       17.3242879122
 Cl         9.4932190189       28.7223536162       23.2573202260
  S        11.9438368545       31.6467032564       23.1078765040
  S        25.9709190597       37.6134810332       20.2125308377
  S        17.4404013906       14.6612574819       34.8270414757
  S        20.0692417060       17.2935409381       34.7804847275
  S        23.0589297798       20.2135052624       34.6572335651
  S        25.9816610742       23.1200954438       34.6489884710
  S        28.9005838084       26.0402192945       34.7215285605
  S        31.7985932124       28.9644538070       34.7053164238
  S        34.6695733278       32.0042299088       34.7011851362
  S        28.8952997671       28.9155734652       37.6641250177
 Zn        41.0806973731       28.0243149049       17.0443138979
 Zn        10.6670522665       27.1173558784       19.2264732689
 Zn        13.2203650396       30.3691083747       18.7931112706
 Zn        15.9080274525       33.2713904829       18.5541096215
 Zn        18.7261394827       36.0322820513       18.5571645439
 Zn        21.6254392945       38.7698820366       18.7326937182
 Zn        24.8866141165       41.3336337899       19.2322272101
 Zn        26.7900768033       10.5641762650       15.8942164427
  S        17.3317169511       20.2048054337       28.9519713914
  S        37.3077866280       34.8272259048       34.5146517917
 Cl        25.9517507984       42.4029802011       31.5152599802
  S        11.5548672279       23.4492461112       36.9932293774
  S        14.7103823647       25.8707595697       37.2907173940
  S        17.5489066997       28.7539846137       37.0962297517
  S        20.2639465015       31.7137490144       37.2546071705
 Zn        41.0894303721       16.4683785657       22.1360700241
 Cl        23.3515510617       17.7269688170       42.6006734835
 Cl        25.9975286633       20.4359193287       42.4548261095
  S        31.8662288167       31.9508460399       37.5150879272
 Cd        24.5452912816       33.2535885215       21.6242203698
 Zn        10.8150035611       24.4571288998       21.7932196008
 Zn        13.1603363866       27.3727559905       21.7129903687
 Cd        15.8187915041       30.3584703420       21.5616486123
 Cd        18.7152640374       33.2812025511       21.5275206496
 Cd        21.6371551426       36.1831406930       21.5541236151
 Zn        24.6257471935       38.8411033163       21.7083628698
 Zn        27.6060786306       41.1815567371       21.7956286989
  S        20.1089342177       37.4964970350       20.0060225799
  S        20.2001442494       23.1006034825       28.9206799555
 Zn        36.1950357561       13.5698417472       24.2900376203
 Cl        28.8762833039       23.0151478785       42.4015673999
 Cl        31.3525707745       25.9481208543       42.5262530137
 Cl        34.3496724084       28.3210708565       42.6675379037
 Zn        10.8232882015       33.1868434124       30.2784347280
 Zn        35.1051959138       23.8004572321       41.5189059244
 Zn        33.6167073733       15.8121930910       13.9604302999
 Zn        13.7314735579       16.2399987713       21.7144609199
  S        20.2088481203       14.7241830193       37.6123915290
 Zn        13.7196422306       35.6957733834       30.2801993145
 Zn        10.8304799181       21.7218153958       24.4757672107
 Zn        13.2302931382       24.5469057878       24.5560942868
 Cd        15.8252273319       27.4505282560       24.5379327165
 Cd        18.7265813823       30.3605135603       24.4704444859
 Cd        21.6310570396       33.2672142126       24.4640837873
 Cd        24.5546917662       36.1710798215       24.5259997187
 Zn        27.4523089361       38.7589045619       24.5501677674
 Zn        30.2948572520       41.1040008932       24.5357059919
  S        23.2003020005       40.0745575027       20.2763389631
  S        22.9491548452       17.3509793785       37.5087887419
  S        25.9330418890       20.2774684848       37.5163136847
  S        28.8320284736       23.1310283109       37.6175491766
  S        31.7542739420       26.0414895320       37.6396124227
  S        34.6255793911       29.2151409443       37.4392397459
  S        37.3658296766       31.8345218842       37.3932468651
  S        26.0782864664       14.3580998573       20.2380069015
 Zn        29.7843749991       16.7131145105       10.8954327448
  S        23.1981461877       34.4502115840       37.1818903858
 Zn        16.3092103704       38.2839237380       30.2824839081
 Zn        10.8181056893       19.2081384328       27.1983366781
 Zn        13.2267702317       21.7286045245       27.4390982964
 Cd        15.8423678262       24.5473692977       27.4544130200
 Cd        18.7260666782       27.4501338803       27.4353027502
 Cd        21.6365492891       30.3591611463       27.3778807870
 Cd        24.5436383111       33.2623102199       27.3863885509
 Cd        27.4519921549       36.1168018356       27.4507888137
 Zn        30.2822984190       38.7572548943       27.3831199763
 Zn        33.0169586972       41.1845607926       27.2244685864
 Zn        39.3513781214       21.2270576071       14.3114766425
  S        26.1113638729       37.2963500984       37.2752429291
  S        28.6805611814       40.2629702063       37.1466247692
  S        23.2568618155       17.5366164538       14.8710356944
 Cl         9.1766076347       20.6027982798       31.2950698611
  S        34.5258775554       34.8423164063       37.3416609443
 Zn        18.8839245488       41.1804560117       30.2729039419
  S        23.2257409406       37.0881603019       34.4440682609
  S        25.8808568321       39.9677013547       34.4598789166
  S        23.1612777924       20.3020410802       40.0093681141
 Zn        10.9113492645       16.6412415543       29.8654844378
 Zn        13.2373832461       18.8798111804       30.3822288000
 Cd        15.8338443545       21.6322954082       30.3744795195
 Cd        18.7297172074       24.5394699350       30.3665153550
 Cd        21.6422977103       27.4494409155       30.3478663975
 Cd        24.5478879960       30.3603417309       30.2976980255
 Cd        27.4566106008       33.2045794711       30.3617062274
 Cd        30.3587578684       36.1186070778       30.3589247374
 Zn        33.1813742969       38.7632183449       30.3706029752
 Zn        35.4340527913       41.0966311599       29.8637655942
 Cl        26.1161825611       42.5659705898       20.6735287431
  S        23.0912822025       39.8888042135       31.7120929621
  S        23.0947949158       25.9985658490       28.8972450977
  S        11.9371317071       23.1687184520       31.7041125346
  S        14.3737934577       25.9601229096       31.7823396381
  S        17.3260683968       28.8945064520       31.7688027643
  S        20.2207119947       31.7521818607       31.7239728923
  S        23.0827993763       34.6512851471       31.7364907862
 Zn        16.0653595570       18.9642500480       21.7075381674
 Cd        18.8020808851       21.6446513566       21.7066773931
 Zn        13.8881480117       15.8855189820       33.5437765028
 Zn        15.9143333164       18.7316315347       33.3650927980
 Cd        18.7084266330       21.6012872983       33.3012022667
 Cd        21.6342195275       24.5427597497       33.2052780632
 Cd        24.5569483443       27.4708712365       33.2535220729
 Cd        27.4623079691       30.3729250468       33.2739644131
 Cd        30.4392594715       33.3407775675       33.2962449382
 Zn        33.2668762672       36.1166908266       33.1969771280
 Zn        35.7771865326       38.9230812070       32.7733654777
  S        23.1032310348       14.3445565245       28.9257679738
  S        23.3332305347       14.8069868118       40.2453690355
  S        26.0819629424       17.5338488739       39.9832112394
  S        28.8715376769       20.2436486156       39.9184539033
  S        31.6361390119       23.0548316683       39.9403292808
  S        34.2916888400       25.7359188513       40.2681516261
  S        36.9438964026       28.5526497173       40.4237732314
  S        20.1996274156       28.9012624383       23.0692727540
 Zn        15.9752446105       27.4516746103       13.3101055053
  S        37.5191353226       20.2805403032       25.9431857869
 Cd        21.6945458472       24.5436128065       21.6942363131
 Zn        16.3872635173       16.3958271034       35.8471103631
 Zn        18.8038513425       18.8057900032       36.0995428096
 Cd        21.6388258173       21.6360621554       36.1670102885
 Cd        24.5410310487       24.5451378137       36.1157633865
 Cd        27.4472462398       27.4662533907       36.1857025775
 Cd        30.3540437224       30.3798652587       36.1880489112
 Zn        33.2720489835       33.3715870168       36.1013245897
 Zn        35.6008526441       35.8646111101       35.6077040921
 Zn        18.8146614142       30.3595646542       13.1500612593
 Cl        28.6128417447       42.5940294796       34.2263593705
  S        14.5674061844       34.6529508764       22.7410436856
 Zn        19.5491283235       10.5768562577       32.5346032460
 Zn        33.1976289695       21.5483596991       13.2240255089
  S        26.0063048170       28.8943086928       28.8873523457
  S        26.0284452922       37.5234765101       31.7198094425
  S        28.8261083353       39.9951017036       31.6973688487
 Cl        38.1005446911       34.9933550252       38.1088860840
  S        26.0530959812       20.2200476814       14.3566769258
  S        28.9098505006       23.0775605084       14.3536550638
 Cd        24.5495887848       27.4488997700       21.6378795934
 Zn        19.3069298491       16.4633921570       38.6901428503
 Zn        21.6288715873       18.8158786046       38.8402496495
 Zn        24.6193347469       21.7171974721       38.7707941941
 Zn        27.3810082035       24.5466864417       38.7801877338
 Zn        30.2599961453       27.3882012483       38.8450193012
 Zn        33.1107608319       30.4447802226       38.7766530024
 Zn        36.1916665812       33.6171724813       38.1009185949
 Zn        21.6389735358       33.1097784710       13.1608942130
  S        31.7720970444       25.9024061224       14.3506130296
 Zn        10.8195950197       21.7105732532       18.8851938010
  S        28.8655151664       20.2241900406       28.8714459525
 Zn        10.5692541707       16.8076171276       23.8847135926
 Zn        13.3900327780       18.8876920273       24.4613608842
 Zn        24.5406396597       36.0182083575       13.2267383534
 Cd        15.8843122758       21.6531321206       24.5674234630
 Cd        27.4379454937       30.2981208791       21.6354632676
  S        31.7740856429       23.1442307900       28.8893842920
  S        15.0155749478       14.9476009385       20.3131775726
  S        17.6347700800       17.6041489517       20.4443968402
 Cd        30.2922736850       33.1935544951       21.6456482146
 Zn        22.1344040078       16.4741684557       41.0951121888
 Zn        24.7135301960       18.9752272796       41.2613227476
 Zn        27.4663874496       21.6533540492       41.1729703073
 Zn        30.1985964734       24.4532598612       41.1804073558
  S        31.8324966002       17.3058880994       23.0400503471
  S        34.6736330813       20.2214156147       23.0656452371
  S        37.6549168650       23.1092231397       23.1016129495
  S        40.0527505921       26.0239554753       23.1641944872
 Cl        42.4379447767       28.9013662749       23.0391474590
 Zn        32.7575910597       27.1906133311       41.2609751582
 Zn        35.2773930712       29.8529776328       41.1065957906
  S        37.1541940385       23.2427993635       34.4997717545
  S        20.2889019140       20.2113331231       20.2863203544
  S        23.1502874628       23.1069365834       20.2353924564
 Zn        35.2812416534       10.8230619498       22.2193424077
 Cl        19.9810068361       13.6875816835       41.1487598098
 Cl        28.6744992905       18.1234334507       42.8775565070
 Cl        32.2088193303       19.6476698586       41.7182151185
 Cl        33.5696070278       23.0392486066       43.0451755841
 Cl        36.8095919114       25.0244761604       42.5362888390
  S        11.9803355519       20.3170401529       28.8816520300
 Cl        10.3590927149       32.3570806903       32.3440687838
  S        31.6620853454       28.8728840328       40.0576465714
  S        23.1804990265       11.9158210423       31.7078854297
  S        40.0688306086       28.8330293595       31.6994447222
 Cl        42.8698573378       31.2883910644       31.3683631610
  S        20.2120221147       37.5967141293       25.8979277037
  S        34.5612520874       37.6441114183       34.4950785569
  S        25.9781958836       23.1231576425       11.9506019315
 Cl        32.3557280779       10.3482846727       32.3487210527
  S        34.6809203795       34.7378610795       31.9063347675
  S        14.9696574412       37.0347866542       31.6673692548
 Zn        13.3237958281       24.3855819498       18.8956166175
 Cd        15.8561723653       27.4678370287       18.7326919786
 Cd        18.7138841597       30.4391512301       18.6459247625
  S        23.1546645425       39.9920286941       26.0031869855
 Cl         8.9459077427       23.0012841544       18.4033048136
 Zn        36.1035084475       10.5650505662       25.2217647216
 Zn        30.4392986881       38.5836688556       21.6420408657
  S        37.2671153196       37.4615787711       31.7889038319
 Cl        19.7791656669       41.7372695441       32.3179655785
 Cl        42.4951569585       25.9871165984       26.0057462589
 Zn        21.6253717568       13.2175387246       33.1999136946
 Zn        21.7107924737       18.8173446207       10.8201614379
 Zn        24.4462291932       21.7254535518       10.8191919290
 Zn        27.3749119595       24.5616106932       10.7357159455
 Zn        30.2688685888       27.5303140629       10.8132063976
 Zn        33.1863874994       30.2135879733       10.8162851600
  S        40.2680012034       25.7141974587       34.3462000106
 Zn        33.1984777381       13.2201370337       21.6230772332
 Cd        18.7353765921       24.5493957486       24.5501095772
  S        25.9955383405       23.1381048976       40.0473235822
  S        34.7229862728       26.0177124119       28.9109139863
  S        25.9954414326       25.9740359365       20.2032820159
  S        28.8716891897       28.8146074602       20.2170021363
  S        31.7406551529       31.7081783791       20.2460558167
  S        34.3841944689       34.3409798644       20.3597807517
  S        37.0348469415       36.9692539067       20.2411941358
  S        11.7175606246       26.2955379528       34.3332416218
 Zn        33.0324490721       35.8622462574       21.6434175947
 Cd        21.6321162272       27.4524430398       24.5431614657
 Cd        24.4827737576       15.8194622360       33.2604494559
 Zn        21.7082595594       16.2994271352       13.7275209997
 Zn        24.3873532184       18.8892940973       13.3260359274
 Zn        27.4374551952       21.7155626972       13.1593614452
 Zn        30.2794268494       24.5504792452       13.1479748617
 Zn        33.1084680077       27.5367779740       13.3129817503
 Zn        35.6889799039       30.2855748422       13.7105281269
  S        14.8414623944       28.7914645793       34.4362775083
 Zn        36.1917659548       15.9794021892       21.4762197773
  S        11.5888147710       20.4076617975       34.3192835143
  S        14.5623716880       22.8193952031       34.7232035492
  S        17.3175625883       25.9445319990       34.6452055284
  S        25.9538913031       14.3643515465       31.7884447131
 Cd        24.5384956923       30.3503688704       24.5336026146
  S        20.2415105100       28.9090178287       34.6487380879
  S        23.1130844919       31.7855957857       34.6779511365
  S        26.0339599837       34.6259227418       34.6826725666
 Cd        27.4403709131       33.2044194646       24.5344258507
  S        34.2743512510       31.6740997893       40.4019057003
 Cd        27.4591078612       18.7341448993       33.2639556811
 Zn        21.7115950395       13.6622380863       16.3020279574
 Zn        24.7068473600       15.9928759133       16.0575062417
 Cd        27.4757501606       18.7806432379       15.8674808175
 Cd        30.3734645648       21.6202919956       15.8152563037
 Cd        33.2612225059       24.4711870368       15.8186002872
 Zn        35.9467424464       27.2783473113       15.9838068031
 Zn        38.1967160710       30.2850377971       16.3081822553
  S        17.6072765050       31.6278511147       34.3618479883
  S        14.7532028615       31.7143715815       31.6683766938
 Cd        30.2920261913       36.0423116071       24.5349098695
 Zn        33.1153835698       38.5280682310       24.5348135379
 Zn        34.9543605808       41.0098241085       23.9723546962
  S        29.0307887782       37.4816220602       34.6426234154
 Zn        32.5240414405       19.4679874618       10.5784250210
 Cl         9.5386281563       25.9741878561       26.0065282902
 Zn        15.9688014371       10.4811050308       26.8633720856
 Cl         9.5165343929       24.9515985667       15.1221964446
  S        11.5973577666       28.4959312729       15.0162889611
  S        28.9515228316       31.8281884674       34.6985802128
 Zn        21.7219528932       10.8182530606       18.8139867069
 Zn        24.4544786492       13.3182668289       18.8939370599
 Cd        27.5280139427       15.8262991303       18.7860283886
 Cd        30.4430523108       18.7174827057       18.7214107255
 Cd        33.2955447019       21.6023370215       18.7264559847
 Cd        36.1232998219       24.5216445751       18.7356388314
 Zn        38.6041858403       27.4531954732       18.8863009247
 Zn        41.1769219683       30.2050128514       18.7974703776
 Cd        30.2896042683       21.7138810437       33.2109906916
  S        14.7479119776       31.7539990414       14.3891484982
  S        17.5264506381       34.5317301367       14.3096772760
 Zn        35.2859899154       22.1460216435       10.8252905030
 Zn        36.1033174928       25.1461148216       10.5641339080
 Zn        36.0294051115       26.7920614492       41.4356071243
 Cl        28.7558571303        9.5100562197       23.2424864674
  S        31.6285255714       40.2899980086       34.3495735859
 Zn        30.4398032617       18.8138559377       13.2338047746
  S        37.6598352641       28.8924377673       28.9255019548
  S        11.6305273544       14.9790034690       28.5843691245
 Zn        10.5653423356       36.0306599441       25.2030505957
 Zn        24.4635391439       10.8167143804       21.7261044950
 Zn        27.4475774742       13.1530664963       21.7281373861
 Cd        30.3859871339       15.8168650562       21.6366287825
 Cd        33.3512942366       18.7074986735       21.5558819979
 Cd        36.1797669336       21.6393213521       21.6422636710
 Zn        38.8316997785       24.6248531256       21.7172021727
 Zn        41.1764883325       27.5185637280       21.7128121399
  S        28.8917284122       17.3198528049       31.7751906923
 Zn        15.9755618942       41.4367065318       25.1440341890
  S        28.9248808819       14.3481895271       23.0989995508
 Cd        21.6209867804       33.2693856012       18.6509819047
 Zn        35.6895245996       38.1841235143       21.6481283442
  S        14.8487457535       23.3138842496       40.2654877712
  S        17.5317349593       26.0833462437       39.9817749148
  S        20.2374766496       28.8729124606       39.9177767943
  S        23.0138323210       31.6486146229       39.9452406117
 Cd        24.5441759788       36.1281696756       18.7283747421
 Zn        27.6161797827       38.6799069425       18.8932177307
  S        14.5752275652       17.3500633799       29.1792735425
  S        21.8275756253       11.4662461945       16.6060594234
 Zn        27.3765408661       10.7423585052       24.6283719533
 Zn        30.2827528018       13.1551134913       24.6209904084
 Cd        33.2601715561       15.8252725199       24.4877259160
 Cd        36.1168641841       18.7334028381       24.4764800901
 Zn        38.7772634029       21.7171868036       24.6264602147
 Zn        41.2537886156       24.6245108569       24.6315311905
 Zn        32.5297937359       10.5804307483       19.4787248372
  S        31.7046938734       37.4855238462       26.0478165066
 Zn        30.2912410378       41.1862990255       18.8884333814
 Zn        10.5696931758       25.2239556181       36.1023580922
 Zn        21.6378157125       33.1091923869       41.1847899668
  S        25.6097893221       34.2673138629       40.3654306576
  S        28.4516618621       36.9682755851       40.4290504925
  S        28.8958579217       31.7355516463       17.3182645732
 Cd        33.2137132415       24.5556523367       33.2735466646
  S        20.1411097831       20.1350291481       37.5212813586
  S        14.7889729212       28.6419952744       11.7651097695
  S        17.5881324646       31.5845001782       11.6695991112
  S        20.3779992209       34.3673903696       34.3556080197
 Zn        36.1975567881       24.2172220723       13.5681713587
 Zn        30.2698028027       10.8149337244       27.5426403950
 Zn        33.1103574985       13.3212527968       27.6084050379
 Zn        35.9413030722       15.9944761112       27.3002508732
 Zn        38.5939962745       18.8859887985       27.4614632065
 Zn        41.1756071072       21.6484092752       27.5207763631
 Cl        25.9627288424        9.4529264085       20.6035457391
  S        34.4853474288       39.9298519171       25.9039884709
  S        20.4068482419       34.2529831020       11.6595471460
  S        23.2529573964       37.1268387365       11.6317198223
  S        11.9598998542       28.8325556634       26.0200274121
  S        17.3000530186       28.9058319890       25.9494080727
  S        14.7332384794       20.2140822038       37.6168710061
  S        17.3570507158       22.9481775952       37.5076692306
  S        20.2776906858       25.9414663322       37.5157026124
  S        23.1273657454       28.8664926124       37.5945543407
  S        26.0414051572       31.7904359950       37.6390111284
 Cl         9.5026931028       20.5716001827       25.9871138339
  S        11.9976844320       23.1380376954       25.9877251012
  S        31.7018805642       11.9328514538       23.1668968785
  S        14.6665322169       17.4967616488       34.8317767522
 Zn        33.1922660700       10.8197437838       30.2843079137
 Zn        35.6872538077       13.7225803719       30.3630509524
 Zn        38.1884873196       16.3136183775       30.3557332289
 Zn        41.1724898134       18.7893630749       30.2688638195
 Zn        38.6874281432       16.4646051796       19.2941797765
 Cl        37.5947419230       40.6352487397       32.6144706480
  S        29.1899205485       34.7135036859       37.4382608737
  S        31.7839772503       37.6213017530       37.2633540779
  S        28.8514950120       25.9726627188       11.9222293265
  S        31.6807189798       28.9051628617       12.0609128770
 Zn        23.7057642785       35.1032826444       41.5936802333
  S        20.2630341755       37.2125813326       14.4830136045
 Cd        36.1267438834       27.4680175457       33.2647100302
  S        11.5195904253       21.7527321403       16.6827943274
  S        14.7493478474       26.1017565514       14.7276119378
  S        17.3824846537       29.0046141168       14.4917156498
  S        20.1503681901       31.8111039729       14.4641830999
  S        22.9995023756       34.6038497966       14.4395884002
 Cl        19.5848425996       32.2181299780       41.7274625425
 Cl        15.2159810659        9.3874086539       25.0872938446
 Zn        15.8178464041       13.4927175982       27.7866127610
 Cd        18.7792044374       15.8150731443       27.5327592927
 Cd        21.6425417217       18.7301689458       27.4755509852
  S        28.8859658739       11.9425055721       20.2920094274
 Cl        22.9105394172       33.5649269000       43.0891549287
  S        25.8665686318       37.2745436285       14.6428105232
  S        30.2609892980       40.5414623492       16.6752977076
  S        11.6711599931       17.6610190795       31.6625675439
  S        23.5090202686       40.4074491321       15.0160505557
 Zn        38.7719823600       30.3738223603       33.1205637206
 Zn        26.6272259369       36.1088086653       41.3472907411
 Cl         9.2723434791       28.2040395545       17.6079756022
  S        17.5549375710       14.8152661606       23.2677556932
  S        20.2688549361       17.2853036780       23.1601961808
 Cl         8.9588139223       33.6037486880       28.9442358912
  S        34.4299165209       28.7308295533       14.8322680973
 Cl         9.4997999353       15.1242564313       25.0863905759
  S        20.1936041233       31.8001139890       25.9141288861
  S        17.6376756976       20.3512477316       40.3166085953
 Cl        24.9008896761       36.8714820372       42.5229758196
 Zn        38.6871987292       15.9096570093       24.5425886171
 Zn        41.2582065830       18.9751188654       24.7178791092
  S        25.9912369552       26.0233591081       31.7915281153
 Zn        41.4182603557       32.5246575581       32.5245385555
  S        11.5478276845       31.5393869418       17.6831837683
  S        14.8592784954       23.2085507075       17.5705792239
  S        17.3798804727       26.0231222879       17.3760394641
  S        20.2251732428       28.9119937176       17.3320488658
  S        23.0866975432       31.7628805232       17.2727396556
  S        25.9722687339       34.6506774833       17.3038264889
  S        28.7863299361       37.1738417105       17.5319531575
 Cl         9.0148941339       18.3342980197       23.1664846750
  S        31.6172885842       17.6078360571       34.4029347323
  S        20.3029272026       23.1629971756       40.0047740194
  S        23.1407970659       26.0117251714       40.0366788970
  S        25.9507177970       28.8287333803       40.0467272243
  S        36.9886972373       31.6952318207       14.9670970719
 Zn        10.5637329669       15.8943237545       26.8687162597
 Zn        13.5538182884       15.8917161581       27.7081320026
 Cd        15.8966600247       18.7443836776       27.5166701625
 Cd        18.7873942298       21.6360630341       27.4641043207
 Cd        21.6377211052       24.5494141410       27.4549631632
  S        28.7978153165       31.7090646796       40.0899453354
  S        31.5462163396       34.3334044353       40.4756889184
  S        26.1873832259       14.7073604022       14.7238484522
  S        34.7090034966       14.5619127611       22.8270959990
 Cl         8.9561889314       28.9740051984       33.6509379737
  S        29.1744430940       17.3470532530       14.5792681168
  S        20.2251780658       28.8802717749       28.8410901760
  S        11.5345661828       16.5923219884       21.8451127542
  S        14.7602217024       20.2855576615       20.3351254432
  S        17.3563473441       23.0808944911       20.2485081540
  S        20.2285449559       25.9913352657       20.2491872484
  S        23.1088733395       28.9114471753       20.2066101104
  S        26.0024029818       31.7819511944       20.1960247395
  S        23.1053884165       31.7876712334       28.8257925213
 Cl        25.0169003012       15.1214661662        9.4695251961
 Cl        28.2604721105       17.6132450506        9.3480706231
 Cl        31.2974337003       20.6218653255        9.1249732408
 Cl        34.3872420038       23.6901985164        9.2941175421
 Cl        36.8871111330       26.9137032661        9.4689642715