     1259
 i =       97, E =    -41826.4040664588
 Cl        20.5913100498       43.6088322315       20.5364352742
 Cl        26.0041234619       43.1422382746       25.9666205248
 Se        40.6930067521       17.1649717106       26.1805018696
 Cl        43.1235063571       20.2310862684       26.1188170776
 Zn        33.4399984569       21.4689234763       41.8451061857
 Se        19.9460615054       35.0319260104       28.9553722243
 Se        23.0234806680       38.0444619774       28.9065876109
 Se        25.9655353263       40.6707572759       28.9379850735
 Cl        28.8284558936       43.1181626561       28.7732049831
 Se        19.9218450595       32.0660629385       19.8494753077
 Se        34.6048500463       41.0963187867       31.7364153891
 Se        11.0703219703       25.5909240563       17.4174310261
 Se        22.9481473479       32.0137983139       22.8952027813
 Zn        36.7631417220       21.3092401862       15.5560322290
 Se        22.9183014201       35.0615842498       19.8871580799
 Zn        33.4517298814       41.7773220263       21.4681165065
 Se        26.0088802597       16.9394309994       29.0342582464
 Zn        10.0664574939       29.6996477696       16.4701489872
 Se        32.2285651162       13.9458150519       19.8229253358
 Zn        16.0587947524       35.9479979159       15.5804759419
 Se        35.2038323214       16.9394914965       19.8439052718
 Zn        22.2929785166       41.9322492836       16.4710558468
 Se        41.0335195536       30.4774391414       16.1422891408
 Se        23.0011224113       25.9669914022       16.9787768572
 Cl         8.8330183098       28.7612338656       23.2191433068
 Se        11.2716443660       31.8636427681       23.0506863328
 Se        25.9334925124       38.0937052095       19.9670300994
 Se        17.1973528781       14.1311034903       35.3510195553
 Se        19.8523701566       16.9203708471       35.2318209286
 Se        22.9502623719       19.9746098310       35.0529109643
 Se        25.9678166075       23.0101416495       35.0196021555
 Se        29.0108723587       26.0511526275       35.0343965861
 Se        32.0371254062       29.1090626268       35.0713727319
 Se        35.0072338516       32.3458333492       35.0523585902
 Se        29.0286927735       29.0473528136       38.1355575599
 Zn        41.6835159289       28.2806780381       16.7185392564
 Zn         9.9892914242       27.0448515584       19.0479610756
 Zn        12.6417415823       30.6078223773       18.3931240340
 Zn        15.4802040745       33.6033622430       18.2164679469
 Zn        18.4624602297       36.5213488492       18.2184703783
 Zn        21.3897965157       39.3660718811       18.3959208409
 Zn        24.9512156145       42.0122185511       18.9754508483
 Zn        26.6974975846        9.9047948424       15.5634064775
 Se        16.9245302124       19.9077773989       29.0952973520
 Se        37.7396000141       35.4087200701       34.8686867304
 Cl        25.8764113721       43.1205711146       31.7135406462
 Se        10.8149155368       23.4079781821       37.4275658977
 Se        14.1389073561       25.9056543214       37.7991059811
 Se        17.1490994633       28.9121939896       37.5952362438
 Se        19.9790297166       32.0197867903       37.7492765549
 Zn        41.8332686623       16.2252625010       22.1309789422
 Cl        23.3624113876       17.4215746402       43.1795850439
 Cl        26.0954980077       20.2207348242       43.0848600177
 Se        32.1334397757       32.2293679637       38.0250226854
 Cd        24.4513304584       33.5391789518       21.3889816206
 Zn        10.0849181940       24.3063622137       21.6248328463
 Zn        12.5802703158       27.4492510565       21.5524303074
 Cd        15.3770762635       30.5381307378       21.3825441975
 Cd        18.3939753488       33.6025113697       21.3089011194
 Cd        21.4574213455       36.6200483953       21.3833336713
 Zn        24.5442991192       39.4250263291       21.5404047765
 Zn        27.6987515966       41.8579518698       21.5563419825
 Se        19.8537738179       38.0291292373       19.7695909125
 Se        19.9651318639       22.9236839468       29.0401470656
 Zn        36.6907161513       12.9867953896       24.1409391418
 Cl        29.0095016083       22.8687185123       43.0579696676
 Cl        31.4821221642       25.8106818040       43.2385229419
 Cl        34.4590712171       28.2465321446       43.4589909963
 Zn        10.1575628480       33.4417264572       30.5160516866
 Zn        35.3658293657       23.6386786573       42.2567792246
 Zn        34.1154660427       15.3223899902       13.4702675455
 Zn        13.1448091861       15.8152742460       21.4748717717
 Se        19.9416747357       14.1935584269       38.1440021831
 Zn        13.1484436659       36.1127045029       30.4570895403
 Zn        10.1477260608       21.5529157374       24.3756273483
 Zn        12.6597016073       24.4645560536       24.4729060453
 Cd        15.4577901618       27.4707952504       24.4535837997
 Cd        18.4555476552       30.5423683447       24.3906567592
 Cd        21.4522539012       33.5378155132       24.3844133534
 Cd        24.4604987215       36.5956988032       24.4516827876
 Zn        27.5299175119       39.3418440380       24.4607470425
 Zn        30.4541063532       41.8487425197       24.3729999802
 Se        23.1048701272       40.7353713114       20.0393903114
 Se        22.8619778416       16.9868210456       38.0189988461
 Se        25.9624721997       20.0506314345       38.0244065387
 Se        28.9869409291       23.0496112643       38.0432444956
 Se        32.0055922706       26.0695125143       38.0954562412
 Se        35.0125941314       29.4195398005       37.9457280121
 Se        37.8619450420       32.2403818764       37.9039982072
 Se        26.0561816909       13.9200520867       19.9801879803
 Zn        29.7855834299       16.6190394540        9.9902036446
 Se        23.1045185425       34.8305663098       37.6348340798
 Zn        15.8885414068       38.8547524929       30.4551374357
 Zn         9.9921751512       19.0484051566       27.1153594430
 Zn        12.6480076952       21.5508277096       27.4582639841
 Cd        15.4647777177       24.4535852755       27.5292391934
 Cd        18.4683148577       27.4671950053       27.4600634616
 Cd        21.4596882777       30.5326934513       27.4520481623
 Cd        24.4626122727       33.5341828711       27.4565928589
 Cd        27.4716675039       36.5336245270       27.4627330654
 Zn        30.4436586822       39.3437221315       27.3739104157
 Zn        33.2013192263       41.9362012593       27.1271563725
 Zn        40.1803819507       21.2324985240       13.8915034133
 Se        26.1252816307       37.8386846896       37.8547147961
 Se        28.7372970942       40.9840567878       37.6573367904
 Se        23.1198217620       17.1233492484       14.3467344511
 Cl         8.4056408993       20.5882254871       31.4334593424
 Se        34.7818405016       35.3658590385       37.8730312411
 Zn        18.5551425945       41.8481497872       30.4446783967
 Se        23.1414239927       37.5983352867       34.7768347473
 Se        25.7943879947       40.6764671870       34.7970974570
 Se        23.0778050113       20.0914510332       40.6692215682
 Zn         9.9949608157       16.5499682808       29.7892373356
 Zn        12.5667234091       18.5523023888       30.6165168516
 Cd        15.3867443528       21.3937314482       30.6133942048
 Cd        18.4637530193       24.4445900869       30.5461026135
 Cd        21.4692482374       27.5250133133       30.5252957180
 Cd        24.5232640782       30.5297605273       30.5103418919
 Cd        27.5353131630       33.5418465921       30.5274178986
 Cd        30.5224908500       36.6016381496       30.4648978437
 Zn        33.4399252736       39.4300654243       30.5206155572
 Zn        35.6939611472       41.8434070680       29.7939390250
 Cl        26.2118317059       43.2335525825       20.4149015761
 Se        22.9521047910       40.5129003967       31.9033318375
 Se        22.9648008902       25.9898745503       29.0154084277
 Se        11.2811719022       23.0678203409       31.8954360277
 Se        13.9307159327       25.9364166675       32.0142626417
 Se        16.9817385096       29.0139360535       31.9805649286
 Se        20.0024425381       31.9907648009       31.9522599790
 Se        22.9785558890       35.0116780952       31.9674187165
 Zn        15.6376170882       18.6342847660       21.4709409840
 Cd        18.4723779266       21.4581188294       21.4829301195
 Zn        13.4870526862       15.3004330433       34.1126557813
 Zn        15.4796194976       18.3915354951       33.7748480958
 Cd        18.3960557434       21.3835210830       33.6184213329
 Cd        21.4633395783       24.4657018740       33.5282123422
 Cd        24.5341183565       27.5399629486       33.5287537584
 Cd        27.5537796097       30.6051536467       33.5466121090
 Cd        30.6187348923       33.6936888792       33.6073443556
 Zn        33.5324011048       36.6862943685       33.4510218492
 Zn        36.1898450615       39.6699306845       32.8733222381
 Se        22.9926381158       13.8836685405       29.0411727721
 Se        23.2512993404       14.2513694873       40.9358494872
 Se        26.1932152590       17.1478158093       40.6667752795
 Se        29.0412419795       20.0318670895       40.4922510863
 Se        31.8827306625       22.8852776707       40.5378805566
 Se        34.5110459133       25.6324287456       40.9589713049
 Se        37.2864365880       28.6422545644       41.2255606540
 Se        19.9445440109       29.0042415945       22.9102384736
 Zn        15.4744920370       27.5291931803       12.7308020914
 Se        38.0284185725       20.0357852700       25.9550343930
 Cd        21.4628454757       24.4609450266       21.4673867301
 Zn        16.0559833656       15.9829784543       36.3661223971
 Zn        18.4655562554       18.4790044501       36.6198942609
 Cd        21.4718060635       21.4769108439       36.6047287249
 Cd        24.4787567625       24.5320217931       36.5404822628
 Cd        27.5287742505       27.5351103381       36.6014741996
 Cd        30.5358155565       30.6103657488       36.6152546417
 Zn        33.5362746458       33.7821753720       36.5202883889
 Zn        35.8704900754       36.4358119520       36.0151954086
 Zn        18.5645366677       30.4566214479       12.4907251090
 Cl        28.6030701841       43.2527046659       34.5155260354
 Se        14.0531834182       35.0189950007       22.5721017952
 Zn        19.4689034310        9.8165020780       32.6880641665
 Zn        33.6029448676       21.3833587253       12.6373649688
 Se        25.9861821713       28.9975781495       28.9856358071
 Se        26.0397192801       38.0239985074       31.9148689160
 Se        28.8967604490       40.7274630032       31.8628896113
 Cl        38.4699847778       35.5435764864       38.6081717691
 Se        26.0613977939       19.9784976042       13.8987654853
 Se        29.0327724723       22.9617335736       13.8451443216
 Cd        24.4675847540       27.4709828504       21.4622615650
 Zn        19.0513942668       16.0619579888       39.2687745769
 Zn        21.4630655489       18.5527223780       39.4294106378
 Zn        24.5508265387       21.5552427201       39.3440054536
 Zn        27.4599631443       24.4742974094       39.3394180417
 Zn        30.4354705232       27.4567486186       39.4151777707
 Zn        33.4420959289       30.6790815441       39.4285382051
 Zn        36.6027252203       34.1179135650       38.5927464095
 Zn        21.4724025029       33.3673858272       12.4921233074
 Se        32.0290551184       25.9264266567       13.8714968984
 Zn        10.1544058141       21.4680950236       18.5491145032
 Se        29.0332816171       19.9808011275       29.0144071712
 Zn         9.7453480260       16.5565505809       23.6403103271
 Zn        12.8173642691       18.6287878648       24.3039430687
 Zn        24.4603360116       36.5075632014       12.7208097860
 Cd        15.4703798726       21.4652913870       24.5363118963
 Cd        27.4696288038       30.5198425669       21.4662238124
 Se        32.0065732847       23.0138445028       29.0066406117
 Se        14.4404939475       14.3701449927       20.0005935556
 Se        17.2273079484       17.2025395256       20.1445040804
 Cd        30.4649213328       33.5172937711       21.4741118850
 Zn        22.1289442878       16.1488213444       41.6900962549
 Zn        24.7970016731       18.7211112779       41.9319070636
 Zn        27.6081340267       21.4783533585       41.8480538597
 Zn        30.3647143576       24.3027920214       41.8526978191
 Se        32.0709378247       16.9062030026       22.9096654260
 Se        35.0287107634       19.9668209385       22.9372987764
 Se        38.0990910861       23.0010957144       23.0086940901
 Se        40.6909955168       26.0008347619       23.0315334592
 Cl        43.0671080614       28.9741636914       22.8520423271
 Zn        32.8731743097       27.1154749333       42.0159832720
 Zn        35.3671288177       29.7865192772       42.0083021868
 Se        37.6484234156       23.1252082449       34.8710802346
 Se        20.0286734923       19.9601816855       20.0112536169
 Se        23.0220885921       22.9684710450       19.9835637591
 Zn        35.5274493154       10.0596298911       22.2893985803
 Cl        19.7100973057       13.1391820891       41.7601254462
 Cl        28.9969954472       18.0199252377       43.5387451683
 Cl        32.5248484648       19.4224597118       42.3746509708
 Cl        33.8368923576       22.7886201046       43.7336215430
 Cl        37.0599849715       24.9281898647       43.2696075051
 Se        11.2783079658       20.1062427508       28.9315757836
 Cl         9.6707316307       32.5230961062       32.5472095444
 Se        31.8555309132       28.9534183905       40.7452783391
 Se        23.1293210153       11.2323362290       31.9134371053
 Se        40.7503742518       28.9490704265       31.8744512398
 Cl        43.6053377896       31.4318686383       31.3464850118
 Se        19.9996487336       38.0900880870       25.8990875796
 Se        34.8872142404       38.3081496179       34.7756010778
 Se        25.9220282323       23.0100760207       11.3080264131
 Cl        32.5570757734        9.5441830914       32.5519211096
 Se        35.0480670495       35.2241487987       32.1186042277
 Se        14.4514531622       37.5556064845       31.9388175996
 Zn        12.8130534283       24.2936740329       18.6412245067
 Cd        15.3854530916       27.5460442237       18.3900367443
 Cd        18.3871010062       30.6035931776       18.3091450781
 Se        23.0708756355       40.6915593164       26.0122388161
 Cl         8.2757774488       22.7921899425       18.1216703827
 Zn        36.4462385580        9.9064527119       25.3764789868
 Zn        30.6105184319       39.0939300858       21.3945824836
 Se        37.7726650152       38.0830280865       31.9748849161
 Cl        19.4842271618       42.4393650227       32.4731508732
 Cl        43.1398071825       25.9589890808       25.9976636115
 Zn        21.4671267751       12.5684625501       33.5285105444
 Zn        21.4658774070       18.4833758295       10.1532817732
 Zn        24.2981744422       21.5605109215       10.0789956687
 Zn        27.3795797436       24.5516880367       10.0669159557
 Zn        30.3597283902       27.6902151323       10.0761791736
 Zn        33.4367041721       30.4641155966       10.0766120602
 Se        40.9199114659       25.6524738208       34.5792112069
 Zn        33.5314083103       12.5692892076       21.3932122817
 Cd        18.4679794316       24.4624179150       24.4663346463
 Se        26.0281448184       23.0245303630       40.6809895170
 Se        35.0422847422       26.0600098494       29.0299097205
 Se        26.0170791118       25.9700403836       19.9813506697
 Se        28.9977109980       28.9803565114       19.9922339192
 Se        31.9856252324       31.9617780197       20.0272310963
 Se        34.7624025838       34.7250631886       20.1351256211
 Se        37.5643239770       37.4970299749       19.9279610370
 Se        11.0629740856       26.3674012246       34.5758707952
 Zn        33.3532524087       36.3498389159       21.4615094570
 Cd        21.4573921673       27.5205207552       24.4560228589
 Cd        24.4558987816       15.3887274066       33.6019225897
 Zn        21.4664865213       15.8151936208       13.1469525795
 Zn        24.3015453007       18.6332808624       12.8112528707
 Zn        27.4509656558       21.5533823828       12.5776283183
 Zn        30.4463615109       24.5469490339       12.5680395065
 Zn        33.3518198687       27.6996921203       12.7430006125
 Zn        36.0971813715       30.5349409672       13.0652650940
 Se        14.3576659918       28.9222712078       34.7891124368
 Zn        36.6936435314       15.5585413064       21.3033881114
 Se        10.7925300074       20.1948384725       34.6723701915
 Se        14.0374568043       22.6793270586       35.0821975465
 Se        16.9582891936       25.9557395581       35.0001098599
 Se        25.9573838898       13.8983201946       32.0055541051
 Cd        24.4554962677       30.5255989559       24.4431071219
 Se        19.9830480565       29.0256262379       35.0202411991
 Se        22.9874457876       32.0227053258       35.0335881863
 Se        26.0540546424       35.0322477375       35.0198554528
 Cd        27.4633049641       33.5330938952       24.4589328991
 Se        34.5505450424       31.8342147091       41.2567464296
 Cd        27.5335310344       18.4584878878       33.5364278067
 Zn        21.4664666494       13.0778609530       15.8896202457
 Zn        24.7068704721       15.5588197491       15.5595461555
 Cd        27.6167478034       18.4590215975       15.3883456068
 Cd        30.6091628905       21.4492670472       15.3264009844
 Cd        33.6008843551       24.4022524119       15.3808506704
 Zn        36.3541993450       27.3713512577       15.5551504942
 Zn        38.6897999263       30.5367681046       15.8807367318
 Se        17.2346981374       31.8691671033       34.7237984963
 Se        14.2274738128       31.9933095771       31.9467328411
 Cd        30.4609990492       36.5141702225       24.4568867991
 Zn        33.4350002068       39.1782516926       24.3892888538
 Zn        35.2044698323       41.7576367574       23.7132094855
 Se        29.1535361941       38.0693288134       34.9465146058
 Zn        32.6903806711       19.3962912424        9.8210941145
 Cl         8.8882174460       25.9677079266       26.0285217403
 Zn        15.5613903109        9.9115843242       26.6968593945
 Cl         8.7072363953       24.8695538770       14.8773909551
 Se        10.8147162707       28.5223535321       14.5699726122
 Se        29.0778048008       32.1206063270       35.0656430437
 Zn        21.4834672389       10.0831635021       18.5546412852
 Zn        24.3014230247       12.8092986310       18.6363447621
 Cd        27.6175984282       15.3898752762       18.4511643012
 Cd        30.6287447722       18.3921015808       18.3877197835
 Cd        33.6288543006       21.3846368805       18.3801617434
 Cd        36.5269625548       24.4579688168       18.4653997989
 Zn        39.1773218014       27.5386915798       18.5657580744
 Zn        41.7694017095       30.5188182733       18.4756945293
 Cd        30.5200127332       21.5458405011       33.5312974266
 Se        14.2426818141       32.0175775964       13.7665635271
 Se        17.2101090547       34.7971131503       13.7443653113
 Zn        35.4567758927       22.2937504168       10.0649715537
 Zn        36.3600872407       25.3050758281        9.8173564888
 Zn        36.3591900696       26.6959755452       42.0992481781
 Cl        28.8014116963        8.8115506159       23.1688727829
 Se        31.8176640225       41.0792400951       34.6442408173
 Zn        30.6214904051       18.5562254067       12.5678507595
 Se        38.1425851039       29.0425354623       29.0348391357
 Se        10.7549240285       14.6493871385       28.6137763450
 Zn         9.8287859739       36.3638591004       25.2902248446
 Zn        24.3745971689       10.1469124134       21.5609908277
 Zn        27.4583693451       12.6420064558       21.5539863656
 Cd        30.6163168162       15.3349182180       21.4071124491
 Cd        33.6199860222       18.3866044057       21.3875027152
 Cd        36.5929030408       21.4745930979       21.4774761224
 Zn        39.3536441882       24.5491742959       21.5491549260
 Zn        41.8495812302       27.5457732282       21.4701511264
 Se        29.0290108389       16.9407291464       32.0247348150
 Zn        15.5569962806       42.0915541263       25.2920623252
 Se        29.0535533088       13.8758103558       22.9638426705
 Cd        21.3971726322       33.6000033926       18.3110502214
 Zn        36.1122627748       38.7644913062       21.3885112439
 Se        14.2977163117       23.2562634396       40.9794402119
 Se        17.1454764573       26.2120659187       40.6401265407
 Se        20.0379879200       29.0657920094       40.4926973919
 Se        22.8912132965       31.8886250704       40.5649830376
 Cd        24.4052376276       36.6107949586       18.3916937889
 Zn        27.6995741528       39.1826132388       18.6339668606
 Se        14.0441762404       16.9332964483       29.4044419793
 Se        21.4895065510       10.7523312325       16.2137369414
 Zn        27.4413067277       10.0701479266       24.5547188151
 Zn        30.4533238012       12.5743934781       24.5435509138
 Cd        33.6008692042       15.3823368061       24.3890016570
 Cd        36.5343400268       18.4711635578       24.4538176554
 Zn        39.3506101515       21.5486540765       24.5512243322
 Zn        41.9293728693       24.5539775837       24.6220174688
 Zn        32.6886359786        9.8156115085       19.4540852716
 Se        31.9574686906       38.0281720772       25.9873728319
 Zn        30.5319921128       41.8492728047       18.4787658383
 Zn         9.9028119345       25.3056171612       36.4358417188
 Zn        21.4701530656       33.4495171033       41.8468929463
 Se        25.5846347058       34.5763562291       40.9471926741
 Se        28.5558959249       37.3769755023       41.2192979039
 Se        29.0279059746       31.9818627902       16.9668044082
 Cd        33.5974227194       24.5449673108       33.5978993834
 Se        19.9225069247       19.9224777851       38.0373988002
 Se        14.3157305522       28.6795894811       10.9809561929
 Se        17.3337205753       31.7704669120       10.9012149891
 Se        20.1357049196       34.7623098547       34.7213208375
 Zn        36.6875787949       24.2159598472       12.9823469853
 Zn        30.4415144876       10.0702124125       27.6191145677
 Zn        33.3642424137       12.8049516452       27.6914785133
 Zn        36.4330883549       15.5561220902       27.3019438676
 Zn        39.1833346250       18.5574601231       27.5355642567
 Zn        41.8504697102       21.4761356989       27.6124215663
 Cl        25.8569921217        8.7487070375       20.4514769817
 Se        34.8285523155       40.6636191040       25.7925916375
 Se        20.2051540000       34.6161881519       10.8711917912
 Se        23.3009728939       37.6385134983       10.9566697891
 Se        11.3733819766       28.9227333174       26.0264667010
 Se        16.9883106297       28.9982217025       25.9242179672
 Se        14.1962161162       20.0029815305       38.0622872194
 Se        17.0051185481       22.8817753958       38.0228464715
 Se        20.0314519453       25.9974624587       38.0191494533
 Se        23.0293341445       29.0224314963       38.0421510685
 Se        26.0561810682       32.0178260191       38.0949766587
 Cl         8.7425938158       20.4510682781       25.8585550698
 Se        11.3469070858       23.0222055484       25.9692096174
 Se        31.9101803234       11.2440576164       23.0731964619
 Se        14.1763264849       17.1153742264       35.3635874759
 Zn        33.4527318531       10.0735402093       30.5237476323
 Zn        36.1062112446       13.0784958954       30.5395596006
 Zn        38.7567800784       15.8839517126       30.5391951259
 Zn        41.7745990476       18.5413478490       30.5259115475
 Zn        39.3492273768       16.1293338988       19.1338601001
 Cl        37.9872362765       41.3723483015       32.7653378062
 Se        29.3233094097       35.1359769558       37.9140816260
 Se        32.0590050644       38.2247089234       37.7365053182
 Se        28.9310030812       26.0335543943       11.2967540362
 Se        31.8578465339       29.1093726935       11.4077614424
 Zn        23.6154541512       35.4378327252       42.2547643158
 Se        19.9702367974       37.7355975674       13.7465473545
 Cd        36.6126006627       27.6267710019       33.5378776018
 Se        10.8054308392       21.4837394447       16.2069990784
 Se        14.1499056579       26.0661701545       14.1473068935
 Se        17.0085179589       29.1080224615       13.9201404873
 Se        19.9370915018       32.0128128146       13.9077025224
 Se        22.8607634239       34.9647077540       13.8967950681
 Cl        19.4259910866       32.5224048503       42.3904135533
 Cl        14.8529355878        8.7509453395       24.9307829557
 Zn        15.3983677560       12.9724237936       28.0187300476
 Cd        18.4604930001       15.3855877299       27.6218528945
 Cd        21.4655690840       18.3915238135       27.5514200734
 Se        28.9302852302       11.2777416856       20.1087247292
 Cl        22.7786597631       33.8921854909       43.7317232726
 Se        25.9066943658       37.8452993801       14.1189997540
 Se        30.5310221746       41.1906101157       16.1546663588
 Se        10.7677748265       17.3999890214       31.8107088524
 Se        23.4322723010       41.1509913908       14.5529649042
 Zn        39.4282063757       30.6870530925       33.4414059629
 Zn        26.6208027696       36.4434341695       42.0970108126
 Cl         8.5921397155       28.1724833623       17.4083804288
 Se        17.1450135059       14.3213058362       23.1186967586
 Se        19.9702603687       16.9552090558       23.0090872519
 Cl         8.2818702276       33.8683467923       29.1813611940
 Se        34.7859064704       28.9250798317       14.3006864000
 Cl         8.6777366448       14.9107049008       24.9367021516
 Se        19.9453144494       32.0480880049       25.9284673349
 Se        17.3570253350       20.2600770897       41.0565035516
 Cl        24.8630504638       37.1355849635       43.2792683120
 Zn        39.2051859747       15.4749437262       24.3847438878
 Zn        42.0013330498       18.7290760198       24.8006983216
 Se        25.9931990645       26.0225280152       31.9935778005
 Zn        42.1833971020       32.6843242417       32.5324338743
 Se        10.7847940749       31.7398083865       17.3134700289
 Se        14.3669081851       23.0700026848       17.1892523707
 Se        16.9548822417       26.0300177748       16.9509169835
 Se        19.9674220238       29.0101462466       16.9496302038
 Se        22.9451492444       32.0067119767       16.9197584284
 Se        25.9249892047       35.0354485640       16.9537545409
 Se        28.8957530651       37.6345195126       17.1628021953
 Cl         8.2731870595       18.0933651729       22.7955138013
 Se        31.8434122847       17.2406809924       34.7262894718
 Se        20.0926725866       23.1279844663       40.6711654977
 Se        23.0331402472       26.0639587953       40.6840377862
 Se        25.9356699112       28.9527888230       40.6934292456
 Se        37.4811891816       32.0260827192       14.4049784462
 Zn         9.8278190538       15.6348472636       26.7063582465
 Zn        12.9698018177       15.3228332632       27.9525515948
 Cd        15.3871292579       18.3931891499       27.6182075277
 Cd        18.4592633595       21.3942692340       27.5505152217
 Cd        21.4612979639       24.4592557688       27.5313880013
 Se        28.8854603818       31.9254163577       40.7461963579
 Se        31.7385048609       34.6777245725       41.2292489155
 Se        26.2875113002       14.1575679082       14.1545444088
 Se        35.1077536257       14.0374445714       22.6598346007
 Cl         8.2712377977       29.1543217395       33.8768844737
 Se        29.4081654602       16.9754050179       14.0619904534
 Se        19.9747776793       28.9948743225       28.9574747406
 Se        10.8086929722       16.1462429312       21.5161020208
 Se        14.2267607767       19.9444622110       19.9983389903
 Se        16.9407621024       22.9402884630       19.9886672295
 Se        19.9389714281       25.9656734010       19.9598505366
 Se        22.9634116407       28.9963716398       19.9563412600
 Se        25.9972301320       32.0366249283       19.9270345120
 Se        22.9909729380       32.0048137516       28.9695894126
 Cl        24.9281283992       14.8591734095        8.7389195685
 Cl        28.2676122514       17.5181686297        8.5243973297
 Cl        31.4320733003       20.5824133527        8.4004633506
 Cl        34.5550989452       23.8185600208        8.5650680909
 Cl        37.0819115210       27.0649473353        8.6362079338