    2839
 i =      144, E =   -111918.4048857613
 Ga        38.7735546502       21.7647490414       44.0903103207
 Ga        44.3267457585       44.3270223286       27.2910154418
 As        40.3295659529       37.6783877236        9.2514412404
 Ga        38.7754611176       38.7785999576       33.0825335459
 Ga        44.3300403675       21.9229834350       16.2241306855
 As        42.7848509652       20.4991334497       28.9342423995
 As        42.7772826309       20.4364161143       34.5547227975
 Ga        46.7664919924       18.9984000373       33.2380498886
 Ga        44.2426228059       21.9161646801       21.8498595079
 As        42.8199615230       20.3849349784       40.1056220051
 As        43.1139627407       20.0483472612       45.7135444237
 Cl        42.6850278480       23.7171334724        9.2402332209
 Ga        46.6915173060       18.8235992167       38.9334483019
 As        42.9640221983       23.3686578827       14.8338460510
 As        42.8775618714       23.3260907120       20.4509930020
 As        42.7913700149       23.3067008882       26.1179462644
 As        42.7857161554       23.2837462627       31.7266513802
 Ga        38.7110817753       38.7063885234       27.4657326969
 Ga        41.5586356892       19.0648701635       16.2198944244
 As        42.8121773954       23.1950819881       37.3000584797
 As        42.9015164154       23.1143184819       42.9182580831
 Cl        42.6982439408       22.8841107636       48.1147102339
 Cl        42.1942444420       26.9173609311        6.1009326093
 Ga        41.5630101282       33.4767418474        8.3030912396
 As        42.9237452967       26.2401551747       12.0442443242
 As        42.8811999831       26.1734736410       17.6489475952
 As        42.7788325314       26.1523859627       23.2673793149
 As        42.7998413681       26.0813039410       28.8990283681
 As        42.8141018876       26.0257649937       34.5118465429
 As        45.5510262675       34.4464299466       28.7733619142
 Ga        44.1562406523       21.9234627996       27.5494864257
 As        42.8871439613       25.9763073332       40.1049237871
 As        42.9325202688       25.8557698908       45.7202764802
 As        42.9253954538       29.1436954107        9.2409127472
 As        42.8560356580       29.0121402445       14.8515684911
 As        42.8210418298       28.9797119251       20.4593020753
 Ga        47.0218589703       22.0004690005       19.1426683130
 As        40.0984775020       37.3811374873       14.8736349054
 As        42.8128498209       28.9303917492       26.0642504614
 As        42.7759241219       28.8600976801       31.7126435782
 As        42.8834462480       28.8235917459       37.3112101672
 As        42.9447995822       28.7751438952       42.9336331691
 Cl        42.2346411153       28.0744584080       48.8367682695
 Ga        46.8516942261       22.0059801348       24.7747861525
 Ga        38.7801561805       38.7827914378       38.7124864755
 Cl        42.6303773495       32.1115451820        6.8719695436
 As        42.9043593641       31.8751738270       12.0536000630
 As        42.8081588077       31.8155852522       17.6575918134
 As        42.7910945682       31.7424773952       23.2222612170
 As        42.7898198285       31.7056937803       28.8451941401
 Ga        46.7680388135       21.8557988017       30.3860548736
 As        43.1072156702       45.7277976435       20.0569096092
 As        42.8791147256       31.6667298630       34.5017015000
 As        42.9560886124       31.6462764198       40.1198265845
 As        37.3147988039       28.9235497042       14.9485323824
 As        43.0725903212       34.9384600005        9.2593807588
 As        42.8251631444       34.6275766659       14.8171569794
 As        45.7090260368       34.4192602278       34.4147121230
 As        42.9301316068       45.6990999622       25.8171566146
 As        42.8138319784       34.5641672098       20.4295465644
 As        42.8109555589       34.5248175252       26.0051812234
 As        42.8928428023       34.5199461061       31.6689733767
 As        42.9614311637       34.5138348974       37.3028064152
 Cl        42.8294582775       34.1813723091       42.8173541160
 Ga        47.0232699310       19.1490623157       21.9925477961
 Cl        42.6927675133       45.7418108958       31.2301764430
 Ga        41.3956594630       27.5385659723       24.6882629181
 Cl        42.7118146611       37.2993869982       12.2173992608
 As        42.8639411291       37.3901074505       17.5708073231
 As        42.8149986866       37.3253769021       23.1671560523
 As        42.8945839519       37.3312667010       28.8079867716
 As        40.0722549496       37.3273235403       20.4299293350
 As        42.9622646227       37.3605245740       34.4547610930
 Cl        42.8675436646       37.0752902774       39.9580938378
 Ga        38.6979440976       24.8471008362        7.9766929031
 As        43.0609495954       40.2953238519       14.6634783296
 As        42.8381415262       40.1302985782       20.3318474772
 As        40.0942183915       37.3147015425       26.0493993499
 As        42.8787572664       40.1257495872       25.9576350702
 As        42.9476147620       40.1617940445       31.5938125445
 Cl        42.8650964000       39.9709726797       37.0657792229
 As        40.1386490868       37.3540952790       31.6457976739
 As        37.2859727177       29.0699357011        9.4640631333
 Ga        38.7135875357       41.4703727620       18.9866489686
 Cl        42.7481775065       42.7513270408       17.6653286602
 As        42.9003063834       42.9023960968       23.0800919229
 Ga        44.0912574160       21.8454300945       33.1597059561
 Cl        42.7168064647       48.1508919487       22.8835880727
 As        42.9417087892       42.9430957944       28.7295023963
 As        37.2751247241       28.9150906684       20.4778638732
 Ga        44.1516089391       21.7618201397       38.7057297197
 Ga        46.9370770209       44.4081628205       24.2833933055
 Ga        46.8541482447       38.7034814204       24.4390119264
 Ga        44.3252566309       21.6075102777       44.3250425023
 Ga        41.4769857257       33.1672871683       13.4579932429
 Ga        41.4013324130       33.1671920301       19.0682640832
 As        42.9615553174       17.6652088484       20.5008634609
 As        40.0679203923       14.9093998569       31.7458324713
 As        37.3030094026       31.7956231806       12.2424295059
 As        42.8609502637       17.7017219167       26.1359267867
 As        40.0903963863       14.8847378113       37.3784971857
 As        37.3044604713       31.7288526635       17.7008968748
 Cl         6.2597601727        9.8539849233       25.2267122965
 As        42.7563655160       17.6785915356       31.7741829623
 As        40.3059966260       14.7010147382       43.0502497642
 As        37.2502742500       31.7012838766       23.2842146175
 Cl         6.8218103519       12.2748428147       22.8861384245
 Cl         6.1516708984       12.7086585125       28.0871653479
 Ga        38.7141042685       24.6863395697       13.4539306798
 As        37.2946919068       31.7159745597       28.8822363207
 Cl         6.8733883230       14.8997339002       20.3138453996
 Cl         6.7800052751       15.0906972241       25.7446963376
 Cl         6.0976327020       15.6082543451       30.8546958012
 Cl        39.9499894061       17.9276174702       12.1212486004
 As        37.3113419558       31.7202662982       34.5193295380
 Cl         6.9303633002       17.5764445585       17.5472111858
 Cl         6.7281023293       17.6391116022       23.2546846061
 Cl         6.7900988588       17.9696658758       28.5147920438
 Cl         6.1616137224       18.3774948235       33.7588510984
 As        37.3530833007       31.7066824506       40.0867843682
 Cl         6.9243339649       20.3093923210       14.9219969350
 Cl         6.7529927394       20.5291711784       20.2818896504
 Cl         6.9107835605       20.5299392939       25.9440017083
 Cl         6.8139690619       20.7608103823       31.4012511472
 Cl         6.1572682105       21.2820045799       36.5910681720
 As        37.2831739520       31.5993977310       45.7132897952
 Cl         6.8842021116       22.8793336107       12.2964372915
 Cl         6.8762167539       23.1112629899       17.6855915597
 Cl         6.8127194150       23.1190834135       23.3488691103
 Cl         6.7768571969       23.2883298939       28.8652882924
 Cl         6.8026654130       23.6121634706       34.1982694582
 Cl         6.1813727408       24.0930718219       39.4540548852
 Cl         6.3113251297       25.2351287084        9.8893386260
 Cl         6.8113339168       25.6978828470       15.1201519667
 Cl         6.7690879549       26.0386214009       20.4468209690
 Cl         6.8173527565       26.1815713350       25.9413256237
 Cl         6.9318302044       26.1837329843       31.6129274418
 Cl         6.8024292744       26.4517282134       37.0826997661
 Cl         6.1732030304       26.9364887581       42.2483219018
 Cl         6.1889361431       28.0515263038       12.7436816448
 Cl         6.8040590123       28.5571117956       17.9211510827
 Cl         6.9301928986       28.7729324697       23.3421719741
 Cl         6.8142070709       28.7812829213       29.0201683880
 Cl         6.7716440423       28.9765707503       34.5330506920
 Cl         6.8061863468       29.3120513593       39.8518934584
 Cl         6.3085709208       29.7790479408       45.1135618322
 Cl         6.1901998389       30.8880159595       15.5535126344
 Cl         6.8042685664       31.3439522385       20.7572064511
 Cl         6.7914508772       31.7119391538       26.0912398092
 Cl         6.7732220301       31.8934709581       31.6372988351
 Cl         6.9025509331       31.9155897658       37.2344277648
 Cl         6.8812303702       32.1333305304       42.6961235392
 Ga        41.5456259574       27.7047148388        7.9234075420
 Cl         6.1449852736       33.7319900827       18.3935293769
 Cl         6.7993868382       34.2449542135       23.5477008614
 Cl         6.9026686293       34.4768313884       29.0384855580
 Cl         6.8938085207       34.6003622167       34.5429042881
 Cl         6.9325876920       34.6775173732       40.0116696313
 As        40.1052574895       12.1843280616       34.6074939256
 Cl         6.1764094824       36.6173859459       21.1858169442
 Cl         6.8006184663       37.0448002845       26.4491846034
 Cl         6.8722497416       37.2521567720       31.8504701095
 Cl         6.9452206761       37.3927663664       37.3393531551
 Cl        39.9126559185       48.1934144954       25.7447918490
 As        40.0752727315       23.2397571135       40.0883386201
 Cl         6.1509952896       39.4198503424       24.0662383872
 Cl         6.7977157524       39.8559547716       29.2603611311
 Cl         6.9306764724       40.0391318281       34.6406800359
 As        40.3063846313       11.9527336780       40.3012326458
 As        40.1468761518       23.0781936037       45.5372638990
 Cl         6.1734938001       42.2580138895       26.9153605559
 Cl         6.8701887539       42.6879437321       32.0725648503
 Ga        44.4086969911       41.4645220091       18.9873063799
 As        40.1042972410       26.2712087630        9.2710340812
 As        40.1056059677       26.1150006568       14.8624792597
 Cl         6.3184379044       45.1248869505       29.7509334048
 Ga        44.2426761334       41.5480003184       24.5237579234
 As        40.0845093945       26.1149785221       20.4605179740
 As        40.0472348742       26.0989023729       26.0921139669
 Cl        45.1219789990       48.6746618437       25.2513928040
 As        40.0258450002       26.0678169386       31.7030697332
 As        40.0780240477       26.0476359247       37.3077866426
 Ga        44.3289061072       24.8397292629       13.4454405898
 Ga        44.2415566128       24.7642314743       19.0579619511
 Cl        48.0210289862       37.4010629615       17.5447783153
 Cl        48.2332982439       37.3589826917       23.2211105453
 Cl        48.1857798861       37.0372749393       28.5278435029
 Ga        41.5432526349       19.0572231532       21.8410048393
 As        42.8464733277       17.5787215987       37.3987862762
 As        40.1742731078       17.6696164334       17.6524541583
 As        37.3454043679       34.6542607616        9.4697980616
 Ga        46.6962555024       21.7548934661       35.9371648650
 Cl        42.7464001993       17.7123336208       42.7292458104
 As        40.1385091579       17.6663538446       23.2873248396
 As        37.3267541216       34.5775955763       14.9553675960
 Ga         7.9985759264       10.5882407179       24.2830144304
 Ga        46.6983093470       21.5217346417       41.6305857243
 Cl        48.8172090649       30.9139731383       39.4475468051
 As        40.0330716866       17.6928905186       28.9162554026
 As        37.2814652018       34.4857413309       20.4411673312
 Ga         8.2318039122       13.3672890131       21.5178235571
 Ga         7.9102633561       13.4509732809       27.2272080902
 Ga        38.7142786214       24.6764377902       19.0622110410
 As        40.0362852748       17.6903797311       34.5577181300
 As        37.2858929356       34.5073298048       26.0642554904
 Ga         8.3166925841       16.0619112999       18.8207710514
 Ga         8.1376847326       16.2977168778       24.4472670687
 Ga         7.9125147155       16.3050449303       30.0805793896
 Cl        45.8000263088       34.1221510442       39.8044791796
 Ga        38.7092307160       41.4683555238       24.6120017840
 As        37.3164022362       34.5339107502       31.7208221565
 Ga         8.3050936580       18.7611155437       16.0548807595
 Zn         7.9979837231       18.9918667299       21.7438796548
 Ga         8.2202039057       19.1477229143       27.3002374659
 Ga         7.9799801572       19.0815689273       32.9991557004
 Ga        47.0205884936       24.8528416831       16.2977435003
 As        37.3533062128       34.5588876747       37.3139207723
 Ga         8.3027951420       21.5132078793       13.3680213895
 Ga         8.2202329062       21.6840179938       18.9945776722
 Ga         8.2999951180       21.8477442480       24.5372259053
 Ga         8.1469059549       21.9970078462       30.1492149581
 Ga         7.9788908809       21.9935501629       35.8455874662
 Ga        46.7782929401       24.8452532082       21.9345860090
 Cl        48.0826284202       34.6611784057       14.9005177176
 Ga         8.0616875849       24.2832034230       10.5895727631
 Ga         8.2156815306       24.4490275004       16.2946767122
 Zn         8.0652316523       24.5426298188       21.8412147785
 Zn         8.0697831516       24.6925904458       27.3900048523
 Ga         8.2268665918       24.7841776548       32.9988283198
 Ga         7.9788011944       24.8499108065       38.6980786449
 Zn        46.9270085005       24.6956525132       27.5378769680
 Cl        42.2898134452       48.7669349280       28.1071756314
 Ga         7.9758717355       27.2234661730       13.4500502211
 Ga         8.1478908698       27.2951446526       19.1491896481
 Ga         8.3032309738       27.3855030250       24.6888903381
 Ga         8.3030624679       27.5382936238       30.2333481557
 Ga         8.1427337629       27.6939295135       35.8411778130
 Ga         7.9846095206       27.7043009013       41.5463778888
 Zn        46.9379365157       24.6099152541       33.0810620583
 As        40.1773836867       37.3456979309       37.3270028105
 Ga         7.9756270894       30.0860194295       16.2990383183
 Ga         8.2223335222       30.1488147107       21.9335878174
 Zn         8.0667406032       30.2415403550       27.5388939611
 Zn         8.0608516509       30.3856723179       33.0818714017
 Ga         8.2175343924       30.5446291239       38.6983909148
 Ga         8.0629489174       30.7128351992       44.4060687742
 Ga        46.7798421415       19.1542631096       27.6209994150
 Cl        39.9800715429       37.0675094364       42.8615677513
 Ga         7.9782639929       32.9938458423       19.0728398667
 Ga         8.1441349848       32.9946168833       24.7734841730
 Ga         8.2319329276       33.0878938890       30.3849737935
 Ga         8.3013099562       33.2428540784       35.9330497106
 Ga         8.3037809203       33.4854373749       41.6281852198
 Ga        38.6982657388        7.9746715530       24.8463071976
 Ga        38.7753019964       41.5435810764       30.2395082942
 Ga         7.9749621646       35.8471950342       21.9226270259
 Ga         8.2199233842       35.8476821652       27.6204557912
 Ga         8.2338618241       36.0014121064       33.2336782141
 Ga         8.3105934377       36.1805145921       38.8693631436
 Ga        38.7022391310        8.2225023529       30.5386775883
 Ga        41.3968255433       33.1445125508       24.6183125742
 Ga        44.4088340286       46.9374871345       24.2845255157
 Ga         7.9788767347       38.7008712288       24.7763018942
 Ga         8.2225962957       38.7025098602       30.4743693165
 Ga         8.3114936291       38.9374106083       36.1674198431
 Ga        38.8717338591        8.3151918838       36.1737866623
 As        40.1334968652       26.0276250973       42.8625627598
 Ga        38.7737031844       41.5605787677       35.8603221313
 Ga         7.9787392314       41.5500182539       27.6949405780
 Ga         8.3083417371       41.6247572259       33.4100334205
 As        45.5600389559       31.9240278996       14.8419307881
 Cl        39.8545499958       25.7024996477       48.1838449199
 Ga        41.4662035069       33.1478472406       30.3044777012
 As        45.5980070496       31.7166705946       26.0101960808
 Ga         8.0600103916       44.4071340892       30.7010326407
 Ga        44.3238065355       44.3286863118       21.6006512922
 Cl        39.8271183497       29.3074064961        6.7905805212
 As        40.0942565399       28.9814666912       12.1013572639
 Ga        44.4069812103        8.0654975572       30.7134026335
 Ga        47.0227650256       16.3000146005       24.8430429084
 As        40.0838319087       28.9274702646       17.6676944582
 As        40.0299685594       28.9292286144       23.2770087144
 Ga        44.0979016872       24.7669250738       24.7036346079
 Ga        44.1624474045       24.6798260392       30.3111322367
 Ga        41.3935646671       27.4702819956       30.3036432586
 Ga        47.0214678975       38.7009223092       30.1427258701
 Ga        44.1589366930       24.5408377083       35.8586565572
 Ga        38.6935965304       24.6865565421       24.6734910275
 As        40.1152916837       17.6189951394       40.0915572262
 As        37.3422023415       34.4994414054       42.9517189212
 Cl         9.9004112306        6.3017410817       25.2307928119
 Cl        42.8106565037       20.8135205287       12.1598604267
 As        40.3845456195       17.3289922908       45.6996098641
 Cl        36.5898748473       33.7592303868       48.8295339912
 As         9.1731629712        9.1880964713       22.7835449459
 Cl        15.0021651135       39.9882081148       15.0160384413
 Cl        39.8019057708       20.8676676236        9.1994330077
 Cl        37.3328341662       37.3761281021        6.9433467449
 As         9.2383358038       11.8675834244       20.0658883716
 As         9.2495116403       12.0545339159       25.8338650979
 Cl         9.2029645991       12.3021653697       31.3043037040
 As        40.1622255627       20.5002016331       14.8331405253
 As        37.3945885051       37.4001550742       12.1258514441
 As         9.2331957185       14.5906345363       17.2978321000
 As         9.3874629514       14.8669083833       23.0580044817
 As         9.2433501759       14.8781774132       28.6933953022
 Cl         9.1933176386       15.1599852490       34.1475425677
 As        37.3193074070       37.3162055243       17.7027577161
 As         9.2799211545       17.2994040503       14.5718950460
 As         9.3269600466       17.6220377767       20.3293821906
 As         9.4431110720       17.6833821315       25.9127320996
 As         9.2763449795       17.6883531889       31.5495968213
 Cl         9.1978976683       18.0122388873       37.0107555891
 As        37.3045765412       37.2751739812       23.2468265930
 As         9.2816379605       20.0449537820       11.8777837392
 As         9.4354469420       20.2876861082       17.5705069496
 As         9.4149919082       20.3971010333       23.1112044515
 As         9.4505759807       20.5485972760       28.7764291399
 As         9.2776687528       20.5366789932       34.4317637073
 Cl         9.2012570140       20.8873179162       39.8189813554
 As         9.1832046795       22.7705741646        9.1830433483
 As         9.4453849420       23.0599831393       14.8633204177
 As         9.3876442191       23.1743405993       20.4173536540
 As         9.4193249611       23.2882476459       26.0193214241
 As         9.4842079363       23.3528613475       31.5941461495
 As         9.2873070534       23.4265191037       37.2613648142
 Cl         9.2336210906       23.7508420889       42.7035087874
 Cl         9.8624377175       25.2510194020        6.3290536694
 As         9.2959789004       25.8184904150       12.0653441285
 As         9.4442465462       25.9289957915       17.7044823869
 As         9.4360878754       25.9721055774       23.2178604581
 As         9.4384136192       26.0655312142       28.8199773187
 As         9.4380311574       26.2286363224       34.4587163240
 As         9.2992924666       26.2850672194       40.0914848294
 Cl         9.3944547809       26.6283949701       45.6153347898
 Cl         9.3829285627       28.3888715812        9.4030710438
 As         9.2846225555       28.6826145842       14.8804463255
 As         9.4756920123       28.7373537971       20.5174790171
 As         9.4181870135       28.8660660792       26.1304679527
 As         9.4159360246       28.9826253085       31.7069456824
 As         9.4419814662       29.0875442002       37.2567775785
 As         9.2841232767       29.1656979803       42.9209900945
 Cl         9.8849521883       29.7780398865       48.6871020123
 Cl         9.2539775833       31.2470181543       12.3088256836
 As         9.2966938510       31.5550897655       17.6932107159
 As         9.4592047676       31.6111836339       23.3500511477
 As         9.4115299860       31.6821069320       28.9212252561
 As         9.4132590390       31.7972304614       34.4640167123
 As         9.4410520721       31.9435809688       40.1261914424
 As         9.1837114778       32.2327518322       45.8101163467
 Cl         9.1915630893       34.1385548220       15.1601534882
 As         9.2803180925       34.4018176618       20.5278890724
 As         9.4463581287       34.4436739199       26.1581449433
 As         9.4690336809       34.5572646783       31.7857122987
 As         9.4600027049       34.6864678624       37.3501404848
 As         9.2963085539       34.9695014451       43.0890888772
 Ga        38.7729848150       10.6712186063       21.9127229099
 Cl         9.1990428665       36.9516862591       18.0131949864
 As         9.2794870511       37.2534373909       23.3732375338
 As         9.4715609872       37.2876671889       29.0233438493
 As         9.4627986727       37.4171426640       34.6294404832
 As         9.2716679228       37.6771488772       40.3402249990
 Ga        38.7102806858       10.7555748841       27.5454953328
 Cl         9.2083878771       39.8202105281       20.8698864566
 As         9.2722747099       40.1086467012       26.2356624365
 As         9.4571702933       40.1182023112       31.8807279194
 As         9.3106935890       40.3842026473       37.6499014927
 Ga        38.7019019837       10.8484374396       33.2285642567
 As        40.0340779156       28.8812166432       28.8767543932
 Cl         9.2524241024       42.7160318884       23.7203942342
 As         9.2817361131       42.9282885750       29.1398040968
 As         9.2996802237       43.0843875517       34.8952776317
 Ga        38.8601256256       10.7543603571       38.8542988348
 As        40.0520661080       28.8594300357       34.5165779545
 Cl         9.3874516137       45.6182045926       26.6146456448
 As         9.1817887853       45.8142048128       32.2112888545
 Ga        38.8557271201       38.8628420848       10.7513648611
 As        40.1345034092       28.8625815728       40.0832265050
 As        40.1168428818       28.7452103310       45.7207154552
 Cl         9.8904362713       48.6944682206       29.7694008595
 Cl        42.7312584008       12.2994374621       37.2883295001
 As        40.1059724008       31.9241631401        9.4756217029
 As        40.0819631096       31.7658941949       14.8894186725
 As        40.2999803387       40.3027433659       11.9423202842
 Cl        48.8225787004       36.5927937281       33.7614386989
 As        40.1170235318       40.1159492580       17.6056554338
 As        45.6016826356       31.8006668948       20.4495696697
 Cl        48.0565456749       40.0816866523       20.3000692432
 As        42.9716721946       20.4964115553       17.6444981633
 As        40.1417671370       20.4789201851       20.4477733013
 As        37.3143450268       37.3104643164       28.8807245938
 Ga        10.5880325840        8.0634630662       24.2891713093
 Ga        46.7827412212       24.4550444490       38.7002640087
 Cl        48.2189895859       34.4561164260       20.2579061275
 As        40.0582842064       20.4889230934       26.0997245540
 As        37.3601591177       37.3589590525       34.4930562531
 Ga        10.6633383773       10.6714720989       21.6057950443
 Ga        10.6697127264       10.6759538503       27.2984390905
 Ga        46.9369035633       24.2896407148       44.4057690437
 As        40.0222218773       20.4906346783       31.7128414011
 As        37.3699829985       37.3726565764       40.1588205611
 Ga        10.5115167556       13.5306666357       18.9891140505
 Ga        10.6944410523       13.4486454324       24.5337754305
 Ga        10.6024546353       13.4478144763       30.2203893416
 Ga        41.5485056643       33.1600450764       35.9296369054
 Cl        45.1443010036        6.3262551907       29.7734252931
 Cl        36.9962699535       36.9970329451       45.7965936196
 Ga        10.6886395627       16.1281647486       16.1329133865
 Ga        10.7591570685       16.2912085197       21.6923672233
 Ga        10.7516167797       16.2232912790       27.3891703189
 Ga        10.6661090997       16.2256852129       33.0744118646
 Cl        39.9830841120       15.0645159303       15.0009016905
 As        37.6788754932       40.3856918670        9.2923346053
 Ga        10.5882609232       18.9917120878       13.5331579867
 Ga        10.8306800889       18.9262167405       18.9952389713
 Ga        10.8358383550       19.0811054016       24.5366921545
 Ga        10.7508466487       19.0622403040       30.2362141487
 Ga        10.6698718898       19.0692476831       35.9276037379
 Ga        47.0215137037       27.7725423177       13.4476974394
 Ga        38.6195968481       24.6925394959       30.3025563135
 Ga        10.6717963327       21.6012546393       10.6667539616
 Ga        10.8469367396       21.7492923735       16.2814849101
 Ga        10.8310336221       21.8280168995       21.7719726608
 Ga        10.8463370875       21.9198840721       27.3791617502
 Ga        10.7538497512       21.8527755861       33.0840485628
 Ga        10.6707256917       21.9211404060       38.7075772191
 Ga        46.8555892459       27.7008637907       19.1420814351
 Ga        10.5898054858       24.2855600178        8.0617907372
 Ga        10.7601947463       24.5313172106       13.4456053167
 Ga        10.8379363253       24.5353966461       19.0739725845
 Ga        10.8421765428       24.6202209337       24.6180420049
 Ga        10.9037329812       24.7645288524       30.2298226761
 Ga        10.7550625882       24.7610080871       35.9239811531
 Ga        10.6718129076       24.7760039914       41.5484687514
 Ga        46.6964642746       27.5457821601       24.6961256878
 Ga        41.5571372793       16.2294387567       19.0619672303
 Ga        10.6726628423       27.2927919920       10.6717231750
 Ga        10.7582471038       27.3845924369       16.2329634522
 Ga        10.9019807257       27.3810006178       21.9217875758
 Ga        10.8436764740       27.4634528743       27.4633942784
 Ga        10.8407120252       27.6038053205       33.0694065062
 Ga        10.7538136388       27.6119509522       38.7092062644
 Ga        10.6750036810       27.7030367709       44.3197318934
 Ga        46.6960063820       27.4571368110       30.2292563189
 Ga        38.6364183286       24.6875697247       35.9203311391
 Ga        10.6681249904       30.1646976056       13.4461953944
 Ga        10.7551721364       30.2311056919       19.0606152412
 Ga        10.8435376821       30.2243922175       24.7575932186
 Ga        10.8386956723       30.3150485815       30.3061173369
 Ga        10.8403610723       30.4566996175       35.8550466304
 Ga        10.7574899751       30.4587057671       41.5472560929
 Ga        10.5901478407       30.7167358251       46.9354492002
 Ga        41.5460976056        7.9815916873       27.7028101302
 Ga        10.6707502027       33.0723205128       16.2208850791
 Ga        10.7572635992       33.0800211213       21.8605154765
 Ga        10.8389713462       33.0733647299       27.5498531078
 Ga        10.9043095761       33.1521208400       33.1540495065
 Ga        10.8439291641       33.2413644178       38.7023573834
 Ga        10.6684955155       33.4014713508       44.3252657987
 Ga        41.5568728159       33.0827991566       41.5466060284