    1847
 i =       79, E =    -56351.6858266910
 In        39.0317636072       19.3816173812       44.6814200660
 In        25.8681421877       38.6972747595       45.3488617332
 In        35.6179086397       19.5597841574       29.1260575948
 In        38.9472134025       39.0086399588       32.5262514002
 In        32.5338229017       19.4604046944       19.4743872239
 Sb        43.6135954821       18.0341064889       27.6566629931
 Sb        43.5485125563       18.1514517844       33.8084263235
 In        32.5250105073       29.2852253369       35.7605253120
 In        45.5129673817       19.8037993603       19.7996815389
 Sb        43.8734481698       17.4976878613       40.6689744788
 Sb        33.9872826910       40.3756204952       14.7132923807
 In        32.4525057414       19.5516861547       25.9494854148
 Sb        33.9554539111       40.3280664273       21.2229446336
 Cl        43.8663716423       21.7129604282       11.8302474075
 Sb        43.9111194429       21.2602168203       18.0441697000
 Sb        43.6784973958       21.2701191805       24.4414529804
 Sb        43.7011788588       21.1358504122       30.8902643952
 In        38.8634356324       38.8616760336       26.1169380629
 In        32.4362173252       19.6227323713       32.3732794810
 Sb        43.5677692778       21.1485116571       37.1496791886
 Sb        43.9432052431       20.7040975134       43.8940836842
 Sb        34.0050871428       40.5218875639       27.6464174334
 Cl        46.5124711491       24.5821029173       24.5392054703
 In        35.6168547750       19.6295179420       35.5403081548
 Cl        43.5359428118       24.9192801543        8.4656922943
 Sb        43.7968868403       24.4269854538       14.7554925816
 Sb        43.6932438892       24.4648364043       21.2823836254
 Sb        43.7532376787       24.5317542051       27.5213337641
 Sb        43.7560514270       24.4832302218       33.8563008059
 Cl        46.5201695082       33.6999882286       27.2036789146
 In        45.1623252180       19.7127579314       26.1356199303
 Sb        43.7464661496       24.2776061099       40.4296277419
 Cl        42.8048365077       23.3955137083       47.1162757877
 Cl        42.7730998701       28.5191010098        4.8904546059
 Sb        43.6751535260       27.6674026358       11.4712388974
 Sb        43.6137161175       27.6605901240       18.0248294612
 In        32.3798725692       29.1245511473       42.1919866055
 Sb        40.5116959946       37.4850985116       11.3733897951
 Sb        43.7348591971       27.5060846088       24.5541866297
 Sb        43.7638572446       27.4745953530       30.8303022236
 Sb        43.8808230776       27.5487664281       37.1611740822
 Cl        43.5518013345       27.0307451431       43.4988178222
 In        29.5444637496        9.8179549619       45.0941920820
 In        35.7720729637       39.0174312562       35.7737266206
 In        32.4462933021       19.5514130217       45.0041508886
 In        35.6892874398       19.6334834754       41.8406135415
 Sb        43.8708711394       31.2291115840        8.0678699085
 Sb        43.5044789941       30.8235982975       14.7408859898
 Sb        43.5762966913       30.7963617614       21.2654007356
 Sb        43.7610563185       30.8383297551       27.4678911660
 In        35.7760409580       19.4585280434       16.2229055615
 Sb        30.6977806844       18.0587135987        8.0986608638
 Sb        43.9210784918       30.7079722109       33.9187707108
 Cl        43.8166807632       30.3162475048       40.1691033327
 Sb        37.1988912892       27.4929565264       11.5231757154
 Cl        46.4657471479       27.8962247422       14.9981242719
 Sb        43.8001658907       34.4372432907       11.1976134965
 Cl        47.5606705668       32.9550208708       32.8978141489
 Cl        42.6685865985       47.1353002034       23.4849162562
 Sb        43.3888782683       33.9844199565       18.0254456475
 Sb        43.6920179985       33.8530442915       24.4906253281
 Sb        43.9028978367       33.9530137160       30.7324273226
 Cl        43.9281372177       33.5682455359       36.8142071876
 Cl        29.6410242935       15.8381907678        4.4563401985
 Zn        32.3751793261       32.3666892104        6.8302969501
 In        25.9660299578       42.0263162746        9.8927218066
 In        42.0848129212       26.0541169965       22.8747627933
 In        35.2899809096       23.0503905843        6.4875183454
 Cl        43.3460346962       37.0503397230       15.1200947334
 Sb        43.5266380206       37.2241966412       21.1829649183
 Sb        43.8283736600       37.1772465049       27.5745944318
 Sb        40.3730611520       37.2835894571       17.9486089235
 Cl        43.9308038370       36.9628907800       33.5218500673
 In        25.9615054202       42.1047119694       16.3788739049
 In        29.4676542592       42.0278877883        6.8922937995
 In        35.6915364673       22.6370814925       12.9848638431
 Sb        43.8464204827       40.7399436158       17.5565662710
 Sb        40.4312638762       37.2362921679       24.4377045395
 Sb        43.6832261201       40.4680730799       24.3328990591
 Cl        43.7481166269       40.2485605236       30.2686414547
 In        25.9588747830       42.0872324487       22.7914821804
 Sb        40.5805229683       37.2990785711       30.9168634066
 Cl        36.9649013772       27.9682773809        5.5294998499
 In        39.1859166753       41.8432878355       16.4622906008
 In        35.7051670867       22.6420963419       19.5458864247
 Sb        43.8659794750       43.9501766048       20.7598926075
 Zn        45.1752982113       19.6218751378       32.3787813862
 In        35.6850290033       22.7879863740       25.9576287309
 Cl        43.4347984692       43.5513803080       27.0960539995
 Sb        37.2018080483       27.4963988543       17.9561349063
 In        44.6874927150       19.3836461884       38.9399887033
 In        35.6254699026       22.8738344254       32.3761821124
 In        32.3653051855       32.2928891344       13.2259893871
 Sb        34.1309093848       40.6925676784       34.1061217887
 In        42.1098540334       32.6161451915        9.7390063216
 In        41.8480917539       32.3655256610       16.3111318306
 Cl        43.9372070633       15.1448140606       18.4458039256
 Sb        40.5585404940       11.4397393193       30.9591604124
 Sb        37.1354571494       30.8173192125        8.4796588260
 Sb        43.8518083419       14.7938443802       24.4632440778
 Sb        40.6298598418       11.4414777219       37.4830764378
 Sb        37.1823615442       30.7262644423       14.7818650695
 In        28.9540116543       35.2849206655       45.5136511842
 Sb        43.4995810182       14.8118548682       30.8671509352
 Cl        33.6125766233       40.4395945303       40.4125221903
 Sb        37.1286919879       30.7641511095       21.2254550242
 In        38.9524481514       35.7016457731       29.2980300661
 Cl        30.3794593175       21.5363549155        5.4527361930
 In        38.7834862146       22.7290655789        9.7218338572
 Sb        37.2372071870       30.8492400964       27.7003259996
 In        32.3715653099       32.3717471782       19.5626192667
 Sb        30.8074097360       21.1722160798       11.4677752772
 Sb        30.8953551754       21.1050056430       17.9402092660
 In        32.3778134743       19.6310385138       38.6983163665
 Sb        37.3691633369       30.9103868851       34.1160265685
 In        32.4458733695       32.4472419159       26.1165640412
 Sb        30.8462039754       21.1421571517       24.3364864637
 Sb        30.7965009094       21.2000213978       30.7961991672
 Sb        30.7676220524       21.2220603162       37.1311710102
 Sb        37.3069162303       30.8605076621       40.5992852369
 In        32.5340426464       32.5209335709       32.5356852727
 Sb        30.8117551690       21.2192966491       43.5748050687
 In        29.2766676370       13.1399020624        9.8067629559
 In        29.1205161253       41.9366267293       13.0529465735
 Sb        30.7923871047       24.5045598394        8.2365769987
 Cl        36.1464028345       29.6039073326       47.5374453256
 In        25.9487483374       42.0174997232       29.1206546842
 Sb        30.8420064192       24.3000564508       14.7622516609
 Sb        30.8551495653       24.3241212970       21.1838549586
 Sb        30.8054992143       24.3534848812       27.5930929713
 Sb        30.8259091418       24.4456521421       34.0034267039
 Sb        30.7682926726       24.4049915406       40.4002118956
 In        35.6919596098       22.8716106949       38.7792755114
 Cl        30.7875708820       24.2771791098       46.4243982851
 Cl        30.7048132446       27.6104772973        5.6151462163
 Sb        30.7619720830       27.5641171482       11.5447352321
 Sb        30.8382381718       27.5534980790       18.0117743478
 Sb        30.8370422761       27.5906916652       24.4276536987
 Sb        30.8603035985       27.6225346889       30.8647636869
 Sb        30.8359363517       27.6254077366       37.2525565795
 Sb        30.8310843517       27.3912242160       43.7653881385
 In        29.3618317042       12.9763912152       16.3095827027
 In        29.0557571653       42.0141313497       19.5450042770
 Sb        30.8665992463       30.8466525630        8.2929694616
 Sb        30.7689338731       30.7279978747       14.8449017872
 In        35.6184308630       16.3858091118       32.3659153629
 Sb        30.8047750805       30.7724089828       21.1957853297
 Sb        30.8183280097       30.8176132789       27.6552647469
 Sb        30.9121586657       30.8526440848       34.1041786502
 Sb        30.8373862875       30.7890526221       40.5798851724
 Cl        30.4416649144       30.3829164872       46.5468035583
 Sb        34.4568922919       40.6931090322        8.1359895670
 In        29.1274934210       42.0821153335       25.8833108592
 Cl        30.9241509352       33.9024356757        5.6354706719
 Sb        30.7174963224       33.9200913799       11.6593717550
 Sb        30.7346185484       33.9755278689       17.9849039369
 Sb        30.7928131011       33.9775745185       24.4561337865
 Cl        33.6694354883       11.5611829314       11.6291993925
 Sb        40.7112326063        8.1136858302       34.4802988056
 Sb        30.8889288089       34.0678639213       30.8934406886
 Sb        30.9528103068       34.0708708986       37.3899358209
 Sb        30.7427474520       33.8835799792       43.9212085101
 Sb        34.1308902501       11.2816033861       17.9077051187
 In        44.8480876923       35.6243616859       16.4568857722
 Sb        40.5599582286       21.0320860649       40.4885718566
 In        29.2860486327       13.0621291897       22.7890122148
 In        29.2778965869       42.1769519143       32.4505391221
 Sb        34.0203216456       11.4222819281       24.3526142242
 In        35.5378995346       44.8464465542       16.3843214366
 Cl        40.2297903238       20.9353560488       46.1845428609
 Sb        30.8704265163       37.1493017354        8.4772405562
 Sb        34.0036076240       11.6154437834       30.7433101383
 In        35.5324442605       22.7124234514       44.9340394740
 Cl        39.4301032642       25.4890532579        4.5930207014
 Sb        40.4764842932       24.2619269383       11.4271170234
 Sb        34.0617436490       11.6090930380       37.1951516978
 In        45.0173012168       42.1804732829       22.5408063958
 Sb        40.5219646629       24.3674272237       17.9590480039
 Sb        40.4703942988       24.4313042550       24.4250954047
 Cl        27.0626709764        8.4154034250        8.5030208473
 Sb        40.4756352224       24.4383916094       30.7797296570
 Sb        40.4902485356       24.4498705216       37.2163571423
 In        35.5279360357        7.1603896096       35.5363118988
 In        45.4312342452       22.9670221692       16.4722734700
 In        29.2821094156       42.1840671021       38.8715391615
 In        32.5358216642       32.4626947631       39.0936791687
 In        32.2026337216       32.1144797777       45.5081761603
 In        42.2683985679       16.3050519288       19.5503099170
 Cl        43.3585313122       15.0481245708       36.8798371923
 Cl        40.4908192043       14.9900919912       14.9519651870
 Cl        37.1702086794       34.3193141088        5.8889743780
 In        38.8609378192       29.1965620369       42.1908644257
 Sb        34.4164897542       43.8351874919       11.2402235717
 Sb        40.6086725645       14.7059917232       21.1461541338
 Sb        37.1944192227       34.0006521389       11.6008045586
 In        26.0454181005       42.1003856295       35.6938588086
 Sb        33.9199471527       43.4124159434       18.0042099157
 In        32.3716783185       35.5260270020       10.1391781281
 Sb        40.4503901147       14.7140971148       27.5607282275
 Sb        37.1647016027       34.0123019897       18.0090185881
 Cl        33.6521485225        5.4701595108       24.8029738342
 Sb        30.7357611098       37.1473567677       14.7645308223
 In        39.0136266025       22.6364230676       16.2979854817
 Sb        40.3965150921       14.7895899366       34.0085054828
 Sb        37.1882455368       33.9911464468       24.4746894390
 Sb        27.6527063294       33.9307773951        8.3895799406
 Sb        30.7304878285       37.1590134774       21.2278306960
 Sb        30.8135522600       37.2692713036       27.6470764752
 In        26.0378250520       42.0242094011       42.1089091375
 In        38.8707158377       42.0143379288       22.8645382713
 Sb        37.3436234791       34.1084571111       30.9261391560
 Sb        27.4949787637       33.9943801944       14.7885151453
 Sb        30.9295695131       37.3576581953       34.1076799316
 Sb        30.9349752375       37.2668269091       40.6604731505
 Cl        29.6359173021       36.1180876753       47.5436136408
 In        32.3651243697       35.5385029027       16.3820438803
 Sb        37.3900315415       34.0991580064       37.3866450561
 Sb        33.9424411267       43.6303517011       24.3222550063
 Cl        31.0065630286       40.1170900122        5.8168101838
 Sb        30.9095943732       40.4996532302       11.4504888257
 Sb        30.6872240370       40.3660384681       18.0033363068
 Sb        30.7471781293       40.3940353880       24.4006835738
 In        32.3692913475       35.6046443498       22.8684771413
 In        35.5461066240       25.9693736520        9.8159390156
 In        39.0296395599       35.6974093318       35.7673572259
 Sb        30.8325224756       40.5372868128       30.8345700158
 Sb        30.9599231144       40.6285973631       37.3078849914
 Cl        30.2345750593       40.1446654009       43.8840712114
 In        29.2073508620       13.1534931824       29.2003536672
 In        29.3835672943       35.4579985104        6.9095293246
 In        32.4518993115       35.7663679318       29.3526616003
 In        44.9981331708       35.5317296190       22.7908094578
 Sb        31.2034052405       43.8510923290        8.0283503707
 Sb        30.7875157626       43.5186179006       14.7348331752
 Sb        30.7362452115       43.5995994882       21.1885512785
 Sb        30.7281861785       43.6512137391       27.5240842286
 Sb        30.7816941639       43.9196062050       33.9559341458
 Cl        30.2476165022       43.8654480078       40.1432084432
 In        32.5413993675       35.7703906060       35.7832726354
 Cl        40.3799049999       37.0723743000       37.0434413831
 Sb        37.2330210218       27.5909330582       24.4166581586
 In        35.4484689639       41.7695458774       12.7317905713
 Cl        30.9700806035       46.1534667210       11.7409564366
 Cl        30.9015056719       46.3743040851       17.9608850764
 Cl        30.7130141065       46.4468959463       24.2744082939
 Sb        34.5053772564       11.2754461124       43.8223958052
 In        32.4534558227       35.6046502810       42.3497409820
 Cl        46.1863575742       20.9306267250       40.1900215937
 Cl        30.3554139656       46.5997886294       30.3758321912
 Cl        29.6395038359       47.5350329802       36.1546465842
 Cl        28.5582348111        9.2339455964       47.1078700531
 Sb        27.5721929990       33.9965625470       21.2011468761
 In        35.6202101812       16.3846720090       38.7611954228
 Sb        27.6330031370       34.0237649418       27.6665787384
 In        38.8599937067       42.1891283212       29.2714788560
 In        35.6113408247       41.8502340652       19.6257503450
 Sb        27.7571987338       34.0164959448       34.0791193475
 In        32.3706614724       29.1301809633        9.9076549819
 In        26.1281330540       45.2669090605       13.2142534784
 Sb        27.6766105112       34.0100563412       40.5385112805
 In        41.9416707595       32.4529055176       22.8802432886
 In        35.6852998173       25.8032701369       16.3053979527
 In        32.4475807131       29.1169372956       16.3849603298
 In        32.4442705954       29.1912151451       22.8010966799
 Cl        33.5268225965       15.1569403064        8.0221832530
 Sb        33.9485943493       43.9474532150       30.7534309870
 Sb        40.5126601870       24.2678528324       43.6905357967
 Zn        26.0514364459       45.2563738593       19.7066236802
 In        32.4573658344       29.2765659258       29.2859672822
 Sb        34.1460089000       14.5953021256       14.6552244660
 Cl        46.1606656497       30.9853058953       11.7557137573
 In        29.1249647532       13.2107838070       35.6122971729
 In        42.1912048857       32.3796963057       29.2058177203
 Cl        46.4175142482       30.8241368540       24.3336631634
 Sb        34.1107212948       14.6098356003       21.0837244113
 In        35.6817210543       25.9559716357       22.7889911636
 In        29.4570659762       45.0197206318        9.8147648364
 Sb        40.4342047882       27.6584898264        8.2619600914
 Cl        33.5299231279       44.0643620428       36.8530434016
 In        29.1349595580       13.0546250747       41.9396122655
 Sb        40.3964522364       27.5246568579       14.7310396301
 Sb        40.4156435531       27.5710273123       21.2362813592
 In        45.2456876581       23.0268908380       23.0365858124
 In        45.0137815854       22.8823680346       29.2833552296
 In        42.0989310448       26.0362952928       29.1993649531
 In        35.6873680018       42.3381416871       32.4506506017
 In        45.0839275594       22.7020042275       35.4441975143
 In        38.9331546533       22.7857017053       22.7839248952
 Sb        40.5975976697       14.4622974283       40.5244094245
 Cl        36.8382427290       33.5019105616       43.9962322299
 Sb        37.2755863871       24.4389322123       40.4300600863
 In        35.6197116875       35.6149498036       26.1197509246
 Zn        25.9550614937       45.2597187312       25.9601929970
 In        29.1254164402       38.7783744330       22.7926671581
 In        35.7754016970       35.7767601701       32.5443142842
 Sb        27.6739438297       21.1403505785       21.1853830713
 In        44.6073103913       32.5372264513       12.8948917026
 In        35.6874822498       26.0529203076       29.2106541042
 Cl        36.1465339574        4.4600938036       22.3596765199
 Cl         4.8809759233        9.1550803018       23.4573112082
 In        26.1145375802       19.5458618585       13.1444449084
 Cl        40.4127193662       18.3524525588       11.5905096155
 Cl        36.8602936818       36.8936272773        8.6545623236
 Cl        36.9948723643        5.5395978797       27.9564796083
 Cl         5.8108078631       11.7554180904       21.0144640543
 Cl         4.5846702209       12.4871876113       26.5538968652
 In        26.1129282431       19.5448303919       19.5549850891
 Sb        37.1822760535       37.2161393687       14.8029964593
 Cl        37.2360990195        5.8745708947       34.4047052261
 Cl         5.8700060739       14.7530357100       17.6770246062
 Cl         5.5494820697       14.9784525746       24.0891034566
 Cl         4.3839747446       15.8291415159       29.6655159088
 In        26.0341527960       19.4797105404       26.0368829668
 Sb        37.1885306562       37.2062461565       21.2202559848
 Cl        43.8035055663       11.8820765607       21.6947450853
 Cl         5.8783345345       17.6579652204       14.8443746633
 Cl         5.5946930681       17.9844986031       21.0787436888
 Cl         5.4022614432       18.3265427314       27.2164942977
 Cl         4.4118947657       19.0952018938       32.9204977611
 In        25.8861763351       19.5469697030       32.4511248544
 In        25.8706895264       45.1671815685       32.2155281956
 Cl         5.8176005377       20.9577350646       11.8514811675
 Cl         5.5946406337       21.0675492130       18.0399273449
 Cl         5.5413337383       21.2008755408       24.3282780056
 Cl         5.3989947050       21.5507056814       30.4605982984
 Cl         4.3837882254       22.3459746933       36.1698831878
 In        25.8837806342       19.5430288289       38.8610697004
 In        45.0075267742       32.4458971211       19.6249777196
 Cl         4.8849759613       23.4155296023        9.2805513906
 Cl         5.5011138876       24.0829570021       15.0673242428
 Cl         5.5316463888       24.2687492185       21.2851355329
 Cl         5.4777826830       24.5341230558       27.4760051246
 Cl         5.4414710955       24.7904789831       33.6723368160
 Cl         4.5867638897       25.4557297837       39.5235035576
 In        26.1329938971       19.7031370161       45.0946357026
 Sb        27.5876279790       21.1567568277       27.6188146558
 Cl         4.5742635133       26.5189435223       12.5705621832
 Cl         5.4405745377       27.2377435423       18.3266991147
 Cl         5.4732889071       27.4812443840       24.5533382332
 Cl         5.5694484129       27.6751878194       30.8091337463
 Cl         5.5514591004       27.9189347198       37.0219895846
 Cl         4.8814938272       28.5407113207       42.8414167327
 Sb        34.0476210984       14.7411438072       27.5316837720
 Sb        27.5394060138       21.1673625357       34.0136540889
 Cl         4.4716478586       29.6683989953       15.8535561910
 Cl         5.3890520221       30.4622304975       21.5961057551
 Cl         5.5523124823       30.7467821164       27.7345777671
 Cl         5.6839332701       30.9728748102       33.9736300897
 Cl         5.8216851555       30.9900172264       40.2413890592
 Sb        33.9681719066       14.8003254219       33.9557861079
 Sb        27.5586607688       21.2079485990       40.3852088442
 Cl         4.3849415977       32.9103592049       19.1438018364
 Cl         5.4410813883       33.7297535098       24.7630389527
 Cl         5.6151412165       34.0194820205       30.9083066924
 Cl         5.8903650255       34.3784759773       37.1596924155
 Sb        34.0542362833       14.7177507987       40.3370355580
 Sb        33.8714306590        8.2542265778       27.5408846314
 Cl        27.7094587584       21.2157836033       46.4323078673
 Cl         4.4733058713       36.2036582779       22.3252736950
 Cl         5.5368704365       37.0017531516       27.8848918254
 Cl         5.8837028750       37.2318728604       34.2813445121
 Cl        34.2471126155       14.7824592563       46.1353170544
 In        38.7763300828        6.6487056379       26.2185270850
 Cl        27.4220053780       24.5054620923        5.5381446818
 Cl         4.6475616259       39.4989468930       25.4185625340
 Cl         5.8282787788       40.2118350082       30.9761271728
 Cl        32.8291859992       19.0849518901        4.4241485700
 In        38.9518065637        7.3141188176       32.6155594190
 Sb        40.4666833228       27.6399368481       27.6317965175
 Sb        27.6200948063       24.3662660880       11.5451126515
 Cl         4.8858802279       42.7827957129       28.5098368226
 Sb        34.0740083698       17.9081449020       11.3283955838
 In        35.5325355759       45.0933453811       22.6303011767
 Sb        40.5585220788       27.6428953637       34.0262521680
 Sb        27.6621997660       24.3595814638       17.9871467117
 Sb        34.1450935101       17.8561260848       17.8641516143
 In        35.6978987140       26.1148745707       35.6836983779
 Sb        40.5476064065       27.6623285724       40.5069361890
 Cl        39.4747750270       26.4945713056       47.3398223768
 Sb        34.0697078807       17.9305122450       24.3235918122
 Cl        34.2914340497       46.1272304051       14.7670836944
 Cl        40.1760230507       30.9838407461        5.8185641612
 Sb        40.4786360588       30.8895722873       11.4477376588
 In        35.6212977222       25.9601654040       42.1063850856
 In        32.6134375117       38.9373394292        7.3091374458
 Sb        40.5486585391       40.5498566910       14.4490988580
 Cl        46.3342003695       30.9516449436       18.0074568147
 In        35.5340265996       10.1498784121       39.1088869547
 Cl        43.9768348657       18.4912824512       15.2106780214
 Sb        40.6523439602       17.8761097236       17.8989678784
 Sb        37.2447657642       37.2542969691       27.6933107197
 Cl        36.8890255859        8.0266010823       18.4372575737
 In        32.2920812013       38.7800088941       13.1421268520
 In        32.2906959878       38.7681370141       19.6229406782
 Sb        40.5305573986       17.9722608238       24.3586655431
 Sb        37.3836474194       37.3693586969       34.1641508920
 Sb        37.1872591089        8.1176088378       24.4779449397
 Sb        27.4676099830        8.2278444669       21.2411038576
 Cl        33.9396580148       46.4226681625       21.0446721136
 Sb        40.3545899159       18.0839386258       30.7335433029
 Cl        36.9857988916       37.0481866036       40.4515814099
 Sb        37.1920859208        8.4299861766       30.8262853563
 In         6.9028339529        9.8161753399       22.5392456477
 Sb        30.7621669744       11.6607510504       33.9459511348
 In        42.3456623965       32.3758590107       35.6153243723
 Cl        33.6710935085       46.6107199123       27.2349962824
 In        25.8679816681       45.2731000295       38.8548259990
 Cl        36.9068751316        8.6377585464       36.9920321876
 In         7.3133906427       12.9672995147       19.4631336740
 In         6.6512454748       13.2206613265       25.8685512304
 In        26.0289140414       22.7900743651        9.9169749140
 In        29.2043316033        9.7433603958       19.6394882922
 Cl        46.4420414169       27.7529679392       21.2513895548
 Cl        32.7690987043       47.6226842988       32.7974640443
 In         7.1524386974       16.3864019625       16.4619178218
 In         6.9871213441       16.4678721161       22.7926884433
 In         6.4119784574       16.6294991259       28.9472399786
 In        26.0427346774       22.7851179343       16.3850892256
 In        32.4393595843       38.8581458819       26.0477674044
 In        38.8499717245       22.8601578149       29.2025957834
 In        42.0980186905       25.9598279514       16.3038150891
 In         7.3122250142       19.3777553227       13.0472632053
 In         6.9171408433       19.5514364296       19.6286253445
 Zn         6.6760828220       19.7144236007       25.9451796123
 In         6.4763230052       19.8023776052       32.2012694976
 In        26.0353465839       22.7201433577       22.7969927310
 In        32.5345181570       39.0269468354       32.5340783900
 In        29.2111572202        9.9065712621       26.0398203022
 In         6.9026173561       22.4562632364        9.8962098181
 In         6.9104250943       22.6985254986       16.4730256732
 In         6.9095146210       22.7853676709       22.9550482319
 In         6.8360899166       22.9604972274       29.0369847878
 In         6.4159837347       23.0499452509       35.3677799313
 In        25.9616282977       22.7194046927       29.2735555935
 In        32.5332197566       38.9431848438       39.0189626495
 In        29.2854979522        9.9820073168       32.2985157014
 Cl        26.5197115481       12.4859111261        4.5916181136
 In         6.6522160019       25.7920663894       13.2230277214
 In         6.8327307147       25.8706170504       19.7832303683
 Zn         6.6673018912       25.9601084523       26.0407682936
 Zn         6.7381301546       26.0538085675       32.2867641897
 In         6.6516508716       26.1324860875       38.7782597567
 In        25.9547505398       22.7219974834       35.6794162734
 Sb        27.7175495002        8.3819836107       33.9627157262
 In        38.8530388751       22.8800860012       35.6123244285
 Sb        27.7379970132       11.4513027428       11.5007359133
 In         6.5652404836       29.0290204557       16.5469919528
 In         6.7471048382       29.0327177213       23.0319566530
 In         6.9093527567       29.0483461733       29.2106571643
 In         6.9874840188       29.2162560596       35.5307822697
 In         6.9029059609       29.4618211845       42.1836824358
 Sb        34.0147262166       17.9902673640       30.7621105927
 Cl        27.2144192279       33.6036225855       46.5309047210
 Sb        27.6834684584       11.4409160546       18.0059021032
 In         6.4888736851       32.2761229645       19.8000095532
 In         6.8313173964       32.2929177946       26.1405770312
 In         6.9875227939       32.4451801092       32.3807725489
 In         7.3170273301       32.5400535445       39.0248078507
 Sb        34.0101999044       18.0094254930       37.1632701044
 In        29.0541303713       35.6052482645       13.1535875657