    1259
 i =       90, E =    -35734.6184190777
 Cl        20.0334092176       43.7632212365       20.2078406381
 Cl        25.9955410072       43.6613251647       25.9239983058
  S        40.9270940227       17.0403143053       26.0937412400
 Cl        43.6477513338       20.1141429693       25.9305627002
 Cd        33.5403344464       21.4631083579       42.3329388379
 Se        19.9274762063       35.1127927360       28.9865967948
  S        22.9492538591       38.1108314017       29.0253491059
  S        25.9536976375       40.9137973620       28.9411181095
 Cl        28.9556910604       43.6145583502       28.9034524441
 Se        19.8888543722       32.0717507318       19.8660013072
  S        34.7562453984       41.0156786237       31.9148957831
  S        10.9472191210       25.8560217050       16.8613898710
 Se        22.9400675577       32.0647764342       22.9187912564
 Cd        36.6786333969       21.4686162997       15.4140563944
 Se        22.9391213768       35.1193812258       19.8733432113
 Cd        33.6938130001       42.3370563708       21.4654349429
 Se        26.0199292267       16.8179039699       29.0779024888
 Cd        10.2395916451       30.2796988198       15.8070129363
  S        32.0592687445       14.0060047132       19.9571091795
 Cd        15.8158875845       36.1924864965       15.8044851498
  S        35.1362947980       16.9291250250       19.9720255991
 Cd        21.7292901495       41.7578044894       15.8013515721
  S        41.5947600252       30.3711655630       15.8744352122
 Se        22.9667080802       25.9376196397       16.8267693009
 Cl         8.3691817555       28.9510092170       23.0266017952
  S        11.1501394347       32.0119184015       22.9354838056
  S        26.0170975357       38.1031733151       19.8695160260
  S        17.1001008056       14.0234391318       35.0956046385
  S        19.9795064887       16.9055113329       35.1142071744
 Se        22.9944805736       19.9481130321       35.1437323280
 Se        26.0191008374       22.9965002626       35.1581207369
 Se        29.0383876964       26.0308647845       35.1840978240
 Se        32.0925889429       29.0418166145       35.1382287070
  S        35.0714022995       32.0699419929       35.0755732681
  S        29.0019704180       29.0463702317       38.0745488203
 Cd        42.1782588635       28.0319389011       16.3061511650
 Cd         9.8178222113       27.2978271953       18.6216753382
 Cd        12.6438734994       30.5385220911       18.4090151954
 Cd        15.4839584784       33.5303804993       18.3923320174
 Cd        18.4626659508       36.5203448051       18.3886088070
 Cd        21.4659184634       39.3541035824       18.4032729421
 Cd        24.7071938546       42.1762338537       18.6219621651
 Cd        27.1116922293        9.2429953670       15.0415492334
 Se        16.8498338419       19.8771663813       29.0366724787
  S        37.9691852707       35.1007967206       34.8980717319
 Cl        26.0816371995       43.6531748593       31.8152079656
  S        10.8782916900       23.2453268528       37.9193187230
  S        13.9426375880       26.1610729525       38.0784290280
  S        16.9890261019       29.0725559238       37.9098121447
  S        19.8407047757       32.1792001881       38.0536086243
 Cd        42.1791117248       15.6425863697       21.6292129200
 Cl        23.0120133090       17.0755370074       43.7307742194
 Cl        25.9064631555       20.1296029513       43.6275695948
  S        32.0327568973       32.0629933750       37.9919219467
 Cd        24.4619620058       33.6031488977       21.3935987689
 Cd         9.7392230531       24.3844583100       21.4627554432
 Cd        12.4951430742       27.4550971901       21.4647582421
 Cd        15.3867057222       30.4699911735       21.4656469005
 Cd        18.3771544924       33.6098986317       21.3877939915
 Cd        21.4731578642       36.6092104528       21.4609271211
 Cd        24.5355595408       39.4456212205       21.4502044866
 Cd        27.6215981679       42.2589317133       21.4605498160
  S        19.9578428246       37.9924039824       19.9352317735
 Se        19.8974246376       22.9154535633       29.0748910065
 Cd        36.6853461967       12.7296397021       24.6141038358
 Cl        29.0358226933       22.9015469367       43.6542252369
 Cl        31.7679058644       26.0831911291       43.6229049339
 Cl        35.0750364020       28.7564603416       43.5459455757
 Cd         9.7324154577       33.6080713282       30.5278701054
 Cd        35.8371703910       23.7779140784       42.5888456833
 Cd        33.6099628732       15.3946458294       13.0729445670
 Cd        12.7340473735       15.5534735605       21.3065316755
  S        19.9547525953       13.9835751103       38.0385483177
 Cd        12.7414623377       36.4443770497       30.6884549701
 Cd         9.7443339488       21.4632125454       24.3975028373
 Cd        12.5504839214       24.4581639302       24.4621394097
 Cd        15.3134430923       27.4655649079       24.4720657414
 Cd        18.3785755166       30.5320608543       24.4605691319
 Cd        21.4547176476       33.6029180656       24.4542962366
 Cd        24.4761166753       36.6786735756       24.4549392184
 Cd        27.5456890930       39.4440495783       24.3952263202
 Cd        30.6056575541       42.2585764355       24.3868087706
  S        22.9897259136       40.8674693694       19.9258435015
  S        23.0158409486       16.8837588901       38.0767811405
  S        26.0109323969       19.9539200530       38.0431800511
  S        29.0528474195       22.9431391362       38.1040310187
  S        32.0587719408       25.9668579771       38.1441455371
  S        35.0567440838       28.9613858080       38.0838952775
  S        38.0053434305       31.7521937802       38.0157589597
  S        25.9664790663       13.8507552370       19.8852290886
 Cd        30.2799594147       15.6374643002       10.3991558414
  S        22.9266853834       35.0371009388       37.8817476231
 Cd        15.5642602219       39.2681262312       30.6374460451
 Cd         9.8254061517       18.6432445040       27.3696733225
 Cd        12.5502931363       21.4769112592       27.4672232302
 Cd        15.3105734639       24.4665597899       27.5335284303
 Cd        18.3129437884       27.4710813727       27.5306848744
 Cd        21.3952594494       30.5243551826       27.4649520756
 Cd        24.4609476476       33.6087528614       27.4608867194
 Cd        27.4731223408       36.6848243788       27.4549791634
 Cd        30.5179316469       39.4385727212       27.3680421227
 Cd        33.5169506258       42.3475267664       27.4430109050
 Cd        40.0227452023       21.2995343550       13.3964207990
  S        25.8175699581       38.0890435415       37.9901447496
  S        28.6740527612       41.1638739848       37.9009250203
  S        22.9270201930       16.9606166374       14.0403334900
 Cl         8.2430241397       19.9728333785       31.7648705189
  S        34.8954152463       35.1040053143       37.9722857147
 Cd        18.4030028736       42.3366060722       30.5381015129
  S        22.9353756992       37.9305686278       34.9262802101
  S        25.9124282132       40.9272894374       34.9027145980
  S        23.0432738560       19.9585420041       40.8666253499
 Cd        10.4012257326       15.6366304967       30.2818089878
 Cd        12.6575594321       18.4663593411       30.5271659201
 Cd        15.3853186143       21.4761939912       30.5255704187
 Cd        18.3845288487       24.4538905925       30.6056224796
 Cd        21.3976810069       27.4739760323       30.5341674957
 Cd        24.4638639190       30.5364726730       30.5285982220
 Cd        27.4718099790       33.6125655826       30.5282037322
 Cd        30.4743373053       36.6794632465       30.4546359253
 Cd        33.5264582914       39.4428735253       30.4622062095
 Cd        36.3530552391       42.1096256066       30.3663244052
 Cl        25.9495185010       43.6352563470       20.1639951084
  S        22.9090072169       40.9329881291       32.0259823235
 Se        22.9387326956       25.9749663539       29.0204065861
  S        11.1086493547       22.9762542871       32.0461201757
  S        13.8585503634       26.0116137946       32.1033413304
 Se        16.8712541317       29.0401017991       32.0665786062
 Se        19.9290996344       32.0557793124       32.0124433951
 Se        22.9243485422       35.0874070012       32.0007893959
 Cd        15.3940936884       18.4773111336       21.3166625944
 Cd        18.3957209106       21.4589156864       21.4656387485
 Cd        13.0783888880       15.3911472269       33.6013561825
 Cd        15.4792699057       18.4506329992       33.6048679626
 Cd        18.3886813731       21.3985645406       33.6822262223
 Cd        21.4562391844       24.4681069263       33.6188053560
 Cd        24.4704648262       27.5387329958       33.6165832744
 Cd        27.5171778134       30.6025606275       33.6111623643
 Cd        30.5504322342       33.6863135447       33.6052600832
 Cd        33.4538104389       36.5315066066       33.4478387573
 Cd        36.1228703532       39.3399062694       33.0404494421
  S        23.0125601792       13.8969363755       29.0409419950
  S        23.3200297435       14.0322710289       41.1217724609
  S        26.0631562258       17.0198062998       40.9220318725
  S        29.0655364264       19.9305000233       40.9040778665
  S        31.9908437107       22.9076938847       40.8976396289
  S        35.0546952124       25.8678445372       41.1110435828
  S        37.9272416195       28.6204677136       41.1927804701
 Se        19.8847020437       29.0052117423       22.9305890274
 Cd        15.3279967718       27.3744811613       12.4893190089
  S        38.0288030476       19.9592410792       26.0843168321
 Cd        21.4615087890       24.4531480382       21.4507018569
 Cd        15.8046246059       15.8054226189       36.1916792756
 Cd        18.5394150391       18.4772508970       36.5396345276
 Cd        21.4789272255       21.4725263135       36.6814872417
 Cd        24.4712152842       24.4814185417       36.6874430393
 Cd        27.4618402168       27.5347327631       36.6784309629
 Cd        30.5167746301       30.5314953075       36.6152737181
 Cd        33.5311913992       33.6090682639       36.5161146711
 Cd        36.1863789718       36.1968532762       36.1868631028
 Cd        18.4627102047       30.5164645665       12.4921448698
 Cl        28.9868363584       43.7337032134       34.8333333964
  S        13.9097771158       35.0794112022       23.0421817135
 Cd        18.8116847570        9.9120331292       33.1143950396
 Cd        33.6018407736       21.3934705535       12.5810117103
 Se        26.0025599165       29.0223411602       29.0306610526
  S        25.9537954996       38.0399738905       31.9951161047
  S        28.9189276082       40.8500370277       31.9682702459
 Cl        38.7063213475       35.1410700384       38.7080258466
  S        25.9493280802       19.8638905717       13.8451880564
  S        29.0435801077       22.9400713778       13.8919117945
 Cd        24.4705367981       27.4648166792       21.3930299768
 Cd        18.8899399568       15.8099891283       39.3465988682
 Cd        21.4697688665       18.3973243101       39.5023774798
 Cd        24.5470901466       21.4725414452       39.4437697063
 Cd        27.5251280394       24.4690264951       39.4490973197
 Cd        30.4630935992       27.4741931096       39.4460021692
 Cd        33.5151284177       30.5296425557       39.3414126712
 Cd        36.6007218071       33.6052712246       38.8695352021
 Cd        21.4785117184       33.5166590976       12.4820712700
  S        32.1303885564       25.9650889080       13.8140559680
 Cd         9.7336315669       21.4684771224       18.3175184239
 Se        29.0173690369       19.9127029533       29.0181698216
 Cd         9.4114340680       16.1426446751       23.7865810533
 Cd        12.5448088154       18.4125666660       24.3661678717
 Cd        24.6307599401       36.6041102893       12.4859368604
 Cd        15.3086325960       21.4481010563       24.4527562940
 Cd        27.4728478265       30.5142603763       21.4493550164
 Se        32.0568179118       23.0088739994       29.0253190642
  S        14.1006022207       14.0957234130       19.8237057675
  S        16.9835724690       16.9714432757       19.9580524218
 Cd        30.5222197073       33.5306718484       21.4570242500
 Cd        21.6325935677       15.5697416917       42.1705011078
 Cd        24.5338064754       18.4764202916       42.3544659210
 Cd        27.5360498725       21.4497197820       42.2613750765
 Cd        30.4595303918       24.3973802837       42.2630172893
 Se        32.1184737835       16.8493682278       22.9651991253
 Se        35.1498460651       19.9291679921       23.0231387146
  S        38.1078952327       22.9969716891       23.0388961248
  S        40.8932909608       26.0250338933       23.0020868714
 Cl        43.6385144265       29.0671795557       22.9041098640
 Cd        33.2865676561       27.3701172175       42.1783646854
 Cd        36.2806448136       30.2826392020       41.6683696672
  S        37.9533920821       22.9475756331       35.0326287802
 Se        19.9566751958       19.9424374834       19.9667143352
 Se        23.0091167894       22.9611258888       19.9217792675
 Cd        36.1935311779       10.2394059294       21.7206586086
 Cl        19.8778415513       13.5825510885       42.0526727905
 Cl        28.7281953184       17.6940372604       44.1375306746
 Cl        32.6453016588       19.2427244591       43.0170373029
 Cl        34.0259375724       23.1125265385       44.2008592393
 Cl        37.5392487680       25.0642991655       43.9616924456
  S        11.1491071450       19.9621707899       29.0493173671
 Cl         9.0564871486       32.7366185739       32.7427911945
  S        31.9908862033       29.0571702835       40.8441291327
  S        23.0072396943       11.0864418450       32.0535947690
  S        40.8582979511       29.0532707605       32.0288371246
 Cl        43.7089574445       31.7923077469       32.0068585993
  S        19.9275428959       38.1429424589       26.0204123866
  S        34.9569437034       38.0575488627       34.9334168749
  S        25.9667103708       22.9321431538       11.1040896883
 Cl        32.7273761271        8.9797988983       32.7075257846
  S        35.0621498051       35.1194686141       32.0183163904
  S        14.1119482917       37.9152107401       32.1442148831
 Cd        12.5516593190       24.3673246463       18.3922499254
 Cd        15.3179097446       27.4682033282       18.3898770144
 Cd        18.3826501321       30.5364204533       18.3091009753
  S        22.9706187629       40.9035058379       25.9591513844
 Cl         7.8662758386       23.1374612516       17.8594722187
 Cd        37.0954185627        9.3969828389       24.9517332256
 Cd        30.6912021129       39.3543452458       21.3082687015
  S        37.9531104151       38.0219405005       31.9985550637
 Cl        19.3271674213       42.9911146885       32.7543724036
 Cl        43.6535971411       26.0015718933       26.0159825650
 Cd        21.4655029317       12.5913022119       33.5384354525
 Cd        21.3856620077       18.3868194564        9.6612978581
 Cd        24.3815193851       21.4623408051        9.7321657564
 Cd        27.4661556728       24.4597790030        9.7296301717
 Cd        30.5247053037       27.5474534823        9.7264410295
 Cd        33.5969724551       30.5344309354        9.6635092901
  S        41.1079746118       25.8468528410       35.1072335577
 Cd        33.5925460523       12.6417155715       21.4611977814
 Cd        18.3208279822       24.4554557324       24.4691359112
  S        26.0196304370       22.9929029971       40.8916039460
 Se        35.1755757266       26.0183654932       29.0924904637
 Se        26.0162141569       25.9571179758       19.8709046113
 Se        28.9957865001       28.9667928184       19.9309184160
 Se        32.0164464050       31.9983271288       19.9258755573
  S        34.9950684234       34.9373042419       19.9238086760
  S        37.8204572171       37.8449264079       19.7682127703
  S        10.9451099115       26.1363822125       35.1224471424
 Cd        33.5116606632       36.5275409635       21.3004061596
 Cd        21.3881918304       27.4678312039       24.4657209352
 Cd        24.5347983733       15.3075956682       33.6103970555
 Cd        21.2880877207       15.5558106330       12.7361475111
 Cd        24.3176221951       18.3981388932       12.4911074664
 Cd        27.4624828989       21.4611624269       12.5529425350
 Cd        30.5396244515       24.4648994407       12.4884000393
 Cd        33.6031030399       27.6174601986       12.4917156536
 Cd        36.4298615475       30.6837858100       12.7313437347
  S        14.0669873425       29.0646015063       35.0199912363
 Cd        36.6782471580       15.4671677136       21.4797437097
  S        11.1098139099       19.9075426770       34.9077049345
  S        13.9421181201       22.9699652407       35.0925968838
 Se        16.9014247765       25.9857045728       35.0955324240
  S        26.0319482094       13.8437465896       32.1103517419
 Cd        24.4544281984       30.5308836115       24.4534517051
 Se        19.9291237793       29.0724101840       35.0826706098
 Se        22.9576228662       32.0703967561       35.0743661512
 Se        26.0090055564       35.1011617761       35.0267786803
 Cd        27.4626626183       33.6141692045       24.4523443730
  S        35.0266823759       32.1321090480       40.7884094397
 Cd        27.5410350846       18.3963345495       33.6138576012
 Cd        21.2988391766       12.7344728460       15.5551080418
 Cd        24.4328697336       15.3929561697       15.3958611288
 Cd        27.4583788519       18.3998581261       15.3104834632
 Cd        30.5316805160       21.4656711139       15.3778457323
 Cd        33.6104383668       24.4655636364       15.3005690527
 Cd        36.6070150127       27.4772737775       15.3885308642
 Cd        39.1892726932       30.6274977579       15.5605720661
  S        16.9797256618       32.0798503216       34.9842141597
  S        13.9192843383       32.1616378031       32.1222674974
 Cd        30.5298231241       36.6114061258       24.3841668023
 Cd        33.5181338122       39.3820477993       24.3805965590
 Cd        35.6896329264       42.1690003813       23.9025533145
  S        28.9696780712       38.1055906419       35.0399772067
 Cd        33.1226878596       18.8015984497        9.9048015759
 Cl         8.3497270322       25.9899580784       25.9965984519
 Cd        15.0551898839        9.2629990835       27.0626125271
 Cl         8.2133197206       25.0557250718       14.2654504949
  S        10.9010611655       28.7489061023       14.0706917093
 Se        29.0366700548       32.1167278241       35.1305252626
 Cd        21.4784883059        9.6696777927       18.3772297551
 Cd        24.3709141798       12.4919133098       18.3948528571
 Cd        27.4650611619       15.3173679225       18.4081668279
 Cd        30.6131636669       18.3747105754       18.3826316751
 Cd        33.6957836206       21.4398446537       18.3834435756
 Cd        36.6918253903       24.4608858537       18.3960397521
 Cd        39.4202238028       27.5463012796       18.4875815820
 Cd        42.3347449768       30.4601784658       18.3102371596
 Cd        30.5265767389       21.4735404857       33.6027726129
  S        14.0333448273       32.0287933871       13.9074508855
  S        17.0649363198       34.9674221886       13.9353318861
 Cd        36.1892543833       21.7078421039       10.1554456995
 Cd        37.0266233012       24.9523171092        9.3151086132
 Cd        36.9362160739       27.0565563068       42.7511643823
 Cl        28.9617694765        8.3693664818       23.0323183892
  S        31.9570798876       41.0571046963       34.7924292797
 Cd        30.5294138225       18.4640853845       12.6568840721
  S        38.0973756820       29.0390167790       29.0436186765
  S        10.8103923472       14.0032614760       28.5976337162
 Cd         9.2498408543       36.9491072611       24.8957337421
 Cd        24.4478620444        9.7381054128       21.4690388350
 Cd        27.4762264550       12.5529379822       21.4756843125
 Cd        30.5299762111       15.3824949265       21.4769489232
 Cd        33.6920109071       18.3831312468       21.4597851578
 Cd        36.6833341573       21.4766367574       21.5397493001
 Cd        39.4327502598       24.5542296877       21.4905088011
 Cd        42.2623939497       27.5435898835       21.4585153848
 Se        29.0426596309       16.8705263153       32.0805465024
 Cd        15.0500563837       42.7526317209       24.9359732980
  S        29.0476962882       13.8936874641       22.9696639680
 Cd        21.3997678987       33.6058033144       18.3113762954
 Cd        36.3751043198       39.1849603885       21.2891943093
  S        14.0484901655       23.2971336986       41.1450018063
  S        17.0452270916       26.0900850811       40.9066933077
  S        19.9083662559       29.1007603284       40.8890019184
  S        22.8941151914       32.0429809988       40.8557054288
 Cd        24.5308612774       36.6146971856       18.3875003588
 Cd        27.6314606236       39.4370465073       18.3898301074
  S        13.8974810240       16.9035481177       28.9569596076
  S        21.5197975337       10.3440408835       15.9396752849
 Cd        27.4718577362        9.7403152842       24.5355249244
 Cd        30.5299809930       12.5054533270       24.5342003213
 Cd        33.6062030389       15.3188415104       24.5284921554
 Cd        36.6924903566       18.3936450509       24.5328064208
 Cd        39.4336804149       21.4736918310       24.6218205112
 Cd        42.2620846306       24.5376345653       24.5471999569
 Cd        33.1248041273        9.9775622070       18.8168561127
  S        32.0274513803       38.0173055580       25.9160282115
 Cd        30.5390062716       42.2649260020       18.3820926216
 Cd         9.3967661339       24.9497736946       37.0320488907
 Cd        21.4511224300       33.6108500014       42.2623878291
  S        25.8129195984       35.1219922371       41.0506300936
  S        28.6747419310       37.9215681504       41.1191434930
 Se        29.0205367375       31.9727531157       16.8799114408
 Cd        33.5993864965       24.4663670935       33.6037917849
  S        19.9966871385       19.9477760613       38.0353939518
  S        14.0691114816       28.6846022007       10.8208531277
  S        17.2000806499       31.9540402901       10.9405288015
  S        19.9232139286       35.0300268965       34.9600542133
 Cd        36.6875260108       24.5538016255       12.6609559584
 Cd        30.5351140713        9.7387892864       27.6072679757
 Cd        33.6038565610       12.5550722003       27.6326695738
 Cd        36.6145477308       15.3987833314       27.5474447566
 Cd        39.4207353634       18.4779571612       27.6154228617
 Cd        42.2673626161       21.4090166855       27.5571847574
 Cl        26.1120626034        8.3646827964       20.1682851725
  S        34.9585618623       40.9196287813       25.8789904340
  S        20.0499603009       34.7904955092       10.9310594700
  S        23.3589975543       37.8900768045       10.8033395144
  S        11.1117003619       29.0071938904       26.0085888963
 Se        16.8169893745       29.0171331820       25.9816683978
  S        14.0114383871       19.9657007218       38.0231257374
  S        16.9068618306       23.0259292480       38.0872610858
  S        19.9557034844       26.0554872062       38.0116282302
  S        22.9441135622       29.0819622628       38.0778875664
  S        25.9623681003       32.1340586670       38.1105305662
 Cl         8.3847788544       20.1775203790       26.0934622557
  S        11.1062212304       22.9704143633       25.9725925801
  S        32.0694386181       11.1261464141       22.9843308221
  S        14.0180009824       17.0870645332       35.0919346982
 Cd        33.6223855103        9.7265934263       30.5217312745
 Cd        36.4397437377       12.7466901625       30.7110671058
 Cd        39.1932225286       15.5601424263       30.7024677978
 Cd        42.3349248800       18.2931375535       30.5187882978
 Cd        39.3530441025       15.8777797898       18.8990355158
 Cl        38.3076234129       41.9790882693       32.1803294333
  S        28.9941676571       35.1268266433       38.0272794936
  S        32.0236384083       38.0933699721       37.9663814318
  S        29.0302811603       25.9547487585       11.0716675701
  S        32.0477316458       29.0501264588       11.0797775431
 Cd        23.7130006100       35.9350400093       42.5080491131
  S        20.0362887028       37.9765718902       13.9080787331
 Cd        36.6789016299       27.4582329152       33.5967975468
  S        10.3919137294       21.4980210872       15.8926615568
  S        13.9489820427       25.8138723274       13.8980953195
  S        16.9284896222       28.9505515708       13.8860520929
  S        19.9938476962       31.9909929337       13.9531986152
  S        23.0408770440       35.0305541476       13.8822267976
 Cl        19.2357677388       32.7097442895       42.9764550529
 Cl        14.4624723805        8.0284158622       25.0819529440
 Cd        15.3814191228       12.6465717853       27.3606602013
 Cd        18.4671164734       15.3254830186       27.4637674950
 Cd        21.4568779057       18.3808549160       27.5298984605
  S        29.0577766629       11.1431514482       19.9736639609
 Cl        23.0882961055       34.1273691081       44.1365708995
  S        26.1720054321       37.9936888580       13.9072635576
  S        30.5482517694       41.5811562787       15.9518579728
  S        11.2070302371       16.9346499828       32.1297140446
  S        23.2657140297       41.0930890670       14.0700249052
 Cd        39.3415273822       30.5222670230       33.5288097503
 Cd        26.9738878764       37.0308672473       42.6014129716
 Cl         8.4088588159       28.6174914462       16.8165820306
  S        16.9833008822       14.0354781660       22.9447344568
 Se        19.9387454799       16.8629086806       22.9678777646
 Cl         7.8660114167       34.0416098840       28.8555339959
  S        35.0385577558       29.0151399675       14.0290010003
 Cl         8.0183890441       14.4601901067       25.0768307739
 Se        19.9069589799       32.0708700739       25.9514506901
  S        17.2033574847       20.0334453060       41.0092226522
 Cl        24.9846694809       37.7196200008       43.7775121889
 Cd        39.5105235535       15.3279952216       24.6260523950
 Cd        42.3566832798       18.4791355979       24.5472200405
 Se        25.9821088008       26.0074606437       32.0878652460
 Cd        42.0217372123       33.1209950842       33.1852610627
  S        11.1313142179       32.0934731539       17.0553285019
  S        14.0685349580       22.9309277016       16.9737789873
 Se        16.8966443603       25.9919868639       16.9046041269
 Se        19.9282453156       28.9711063375       16.8485429792
 Se        22.9434506297       32.0263195575       16.8496706264
 Se        25.9790059956       35.0227534401       16.8966079331
  S        29.0411875965       37.8989155423       16.9614501611
 Cl         7.8376318985       17.9733190553       23.1054555035
  S        32.0454022156       16.9837416216       35.0197136958
  S        19.9717202538       23.0662649974       40.8448769261
  S        22.9792699666       26.0542756693       40.9035208429
  S        25.9608663765       29.0490107275       40.8808464093
  S        37.8670335896       32.1640400479       14.1136703273
 Cd         9.2507796299       15.0460931570       27.0602479175
 Cd        12.6465764284       15.3129997608       27.3648806793
 Cd        15.3242076535       18.4062532593       27.4586479331
 Cd        18.3915362026       21.3946964250       27.5305044423
 Cd        21.3893393263       24.4518038648       27.5315024555
  S        28.9997244361       32.0694537376       40.8587134759
  S        32.0490522515       34.9664811057       40.8795800004
  S        25.7995048356       13.9151026069       13.9186746316
  S        35.1270047129       13.9515621746       22.9902588443
 Cl         7.8737785077       28.8543569996       34.1131081678
  S        28.9690902391       16.8934378589       13.8985909494
 Se        19.8876912234       28.9946608325       28.9970701879
  S        10.3489874628       15.9449154371       21.5140905002
  S        13.9098737318       19.8246296677       19.8307623128
 Se        16.8738911065       22.9459261377       19.9263521528
 Se        19.9360524523       25.9531784860       19.9144932758
 Se        22.9445134846       29.0022016218       19.8994213692
 Se        25.9756790725       32.0358744128       19.9162527430
 Se        22.9645841014       32.0330226616       28.9563337422
 Cl        25.0473896529       14.4536351750        8.0368154039
 Cl        28.7722087461       16.8705631415        8.4792573238
 Cl        31.7594668529       19.9440652807        8.2310516118
 Cl        35.1527858385       23.3371367646        8.3176202688
 Cl        37.6486991880       26.9472696179        8.1167641080