     149
 i =       26, E =     -4207.5175567691
 Cd        13.5159179470       14.6343249431       12.1605622913
 Cd        13.5781861841       12.0180902389       15.3334765831
 Cd        11.3243221122       15.3907430707       15.4766053165
 Cd        16.7032692928       16.7444565408       11.3953535687
 Cd        16.8313644688       14.1088517393       14.3944133267
 Cd        14.5251419963       17.6715551266       14.6354584045
 Cd        16.7128481745       11.5777490665       17.5157510189
 Cd        14.5358049381       14.9372786405       17.8588175912
 Cd        12.4329931164       18.3725517861       17.9978763640
 Cd        20.0906892906       16.3255098371       13.7491857906
 Cd        17.8482879988       19.8003743690       13.9841377233
 Cd        20.0770803321       13.8205450843       16.7203080928
 Cd        18.0066893362       17.2256436987       17.0277322422
 Cd        15.7411673202       20.5653681620       17.1811692818
 Cd        17.8581516105       14.6349537056       20.0901978906
 Cd        15.7681555524       17.8572809081       20.2525349149
 Cd        12.6392748971       11.6654427379        9.6930329741
 Cd        10.3898709597       15.4055758921        9.9949855396
 Cd        12.2212503277        9.2327363200       12.5181932123
 Cd        10.2345403357       12.2082489584       12.8611799737
 Cd         8.3120585188       16.0692228372       13.2018240008
 Cd        10.3901546774        9.9956212088       16.4579010595
 Cd         8.3152883004       13.2695598747       16.5016461961
 Cd        15.6716742482       13.6735810007        8.7263953889
 Cd        13.3752081885       17.3465443594        8.9679980042
 Cd        15.7618094069       10.8923498942       11.6710919305
 Cd        11.0748526502       18.3492582834       12.1607167976
 Cd        15.4911821198        8.4790483345       14.7791244945
 Cd         9.0515201950       18.9003197013       15.6034281729
 Cd        13.3705947477        9.2929149388       18.4810635155
 Cd        11.0563492593       12.6324615874       18.9470597971
 Cd         9.0484176340       16.1187061310       18.8923395632
 Cd        18.8101747459       15.6604676997        8.3072011766
 Cd        16.4378244962       19.4190499424        8.5472167714
 Cd        19.0567614316       13.0238143978       10.9129310999
 Cd        14.3075933438       20.4817267751       11.4068712029
 Cd        19.0294590181       10.4780125175       13.9153451927
 Cd        12.1630708796       21.2687936241       14.6324227629
 Cd        18.6498408163        8.3280590422       16.8987501674
 Cd        10.3915022670       21.6080995146       17.9038862341
 Cd        16.3995360311        9.2096356068       20.6187470632
 Cd        14.2906632411       12.2287715554       21.1735950643
 Cd        12.1557904607       15.5342870452       21.4036940479
 Cd        10.3944741508       18.8049025991       21.2062379489
 Cd        22.0327589163       15.2550305941       10.5513051637
 Cd        19.8674086371       18.8222041728       10.8834291484
 Cd        17.5302093315       22.3123546367       10.9897002881
 Cd        22.3172545442       12.8163234596       13.3619217416
 Cd        15.6161050439       23.3164922375       14.0185118048
 Cd        21.9475822950       10.4560873745       16.2358754924
 Cd        13.5152969334       23.7533657437       17.0445567378
 Cd        19.8272076258       11.3891579551       19.6866691085
 Cd        13.6946059544       21.4491732401       20.6694957654
 Cd        17.4958601126       12.1102931078       23.0548516433
 Cd        15.6248075483       15.2837545559       23.5269859245
 Cd        13.5111510502       18.2937809555       23.4534758254
 Cd        23.2775592382       18.5331957107       13.3247709542
 Cd        21.1427404172       21.8400100257       13.5326552351
 Cd        23.5231850234       16.0327120099       16.0802576265
 Cd        21.5313310372       19.5822670479       16.4628586865
 Cd        19.1311869976       22.8850369567       16.5146466108
 Cd        23.2032790203       13.7581435185       19.0343505796
 Cd        21.5104820177       17.0567173326       19.4768569359
 Cd        19.3399695478       20.3953628774       19.6972363870
 Cd        17.0430975056       23.3878824246       19.6087128751
 Cd        21.0349893006       14.6437004513       22.2405074542
 Cd        19.0254851355       17.8594451565       22.7055943231
 Cd        16.7120846657       21.1892302017       22.6210455349
 Cl        14.7046077363       22.9772908793       22.4417400551
 Cl        17.2090824289       24.3421720639       12.2821540652
 Cl        11.4851774795       16.0342236200        7.8941891778
 Cl        17.1847351830       13.7204605744       24.8450182025
 Cl         9.8608559227       10.0706810884       11.5259751206
 Cl        24.8608982120       14.2319065659       17.3058216303
 Cl         8.2390230435       18.1137749972       20.2714389273
 Cl        18.1318694225       24.7707504494       17.8776777415
 Cl        14.8702394036        7.5790090118       19.6740700840
 Cl        17.9838773201       19.6308074010       24.1651762232
 Cl        14.9107353453       25.1669108338       15.6105337724
 Cl        13.5933051461       12.6930793757        7.6626174213
 Cl        11.4661643324        8.0087944759       17.4085759569
 Cl         7.0837293986       15.0376520415       17.6697036612
 Cl        20.2905484291       16.0342730231       24.0751598642
 Cl        23.7579808296       11.3065763158       14.8346184576
 Cl        16.8298312507        6.8475590160       16.3145558820
 Cl        23.8083919870       13.9967662539       11.6480945029
 Cl        20.4052673060       23.9251836490       14.5284926094
 Cl         7.0778305072       17.5376385024       14.7201047434
 Cl        13.3948159810        7.4282165562       13.8563148613
 Cl        14.9073213542       18.2141254870        7.0968687663
 Cl        17.0052686793       14.8880529442        6.8840296499
 Cl        24.9042770547       16.8955667249       14.1028156510
 Cl        14.9015649618       17.1320732631       25.1060492520
 Cl         8.2343680749       20.6110388603       17.3180042693
  S        14.8798239142       12.8836160734       13.3491245673
  S        12.5323538442       16.4903149183       13.5564451330
  S        12.5354346105       13.7062409066       16.8929472778
  S        18.2772367597       15.1201758425       12.5053208471
  S        15.9436119870       18.7292948170       12.7421547719
  S        18.2645120985       12.4120854488       15.7113498771
  S        15.9956569777       15.9857395330       15.9704047756
  S        13.6769120446       19.5489055397       16.1460404982
  S        15.9473113432       13.2498160470       19.2284558335
  S        13.6665365937       16.7236936162       19.4407597908
  S        19.4695227901       18.2867521754       15.1806023450
  S        19.4591975842       15.5840705288       18.3891178057
  S        17.2087007851       19.0679781708       18.5703532955
  S        13.7082478205        9.7607444049       10.6547963507
  S        11.4822182930       13.4407282230       11.0248611239
  S         9.0598708790       17.0369864238       11.1378108341
  S        11.5565064986       10.7617334650       14.4297189665
  S         9.2424413893       14.0583121670       14.3309450580
  S         9.0302450253       11.4122036711       17.8373053464
  S        17.0629391086       12.0363713263        9.8652744401
  S        14.8171205403       15.6119858434       10.1783276585
  S        12.5158556013       19.1821546332       10.3141073507
  S        17.0400550611        9.2964776205       13.0801118378
  S        10.2127879513       20.0137027768       13.7736856041
  S        14.8373749418       10.1904932870       16.5890268392
  S        10.3754105526       17.2193041433       17.0011360090
  S        12.5068018321       10.9433664063       20.0536274762
  S        10.1913703421       14.5032221600       20.3111788913
  S        20.5292560231       14.1717565464        9.0476791532
  S        18.1978644056       17.8404116464        9.3851279000
  S        15.8323194941       21.5156209337        9.5127156276
  S        20.5357483346       11.5748067213       12.2764296675
  S        13.6801985873       22.2997872866       12.9534972805
  S        20.4432364658        8.8139452655       15.3818417301
  S        11.3348725428       23.1122581517       16.2879219020
  S        18.1679139198        9.7528239949       18.9261905967
  S        11.6037944674       20.3541469736       19.6724015212
  S        15.7954408867       10.5243279268       22.5164829461
  S        13.6824336448       14.0659867679       22.7010508522
  S        11.3150279192       17.4583544099       22.9604244383
  S        21.6518704941       17.3992018225       11.7875322692
  S        19.3656953941       20.9401146566       12.0101687756
  S        21.6443040891       14.7197668140       14.9425278450
  S        17.1235979230       21.7615796967       15.3808268099
  S        21.6003304303       12.0590998820       18.1262185095
  S        14.8825240223       22.5186221510       18.6967535978
  S        19.3515209150       12.8911023411       21.5669435921
  S        17.1513265941       16.3501021385       21.7786396402
  S        14.8797263053       19.5992975623       21.8833372350
  S        22.9524029311       20.5949342768       14.4791765106
  S        22.9010076913       17.8425481130       17.5763444533
  S        20.5953310824       21.4238110488       17.7946671630
  S        22.8807613163       15.2756063694       20.8452488520
  S        20.5878038519       18.7182591692       21.0383154790
  S        18.3984456216       22.2378789973       21.1995553954
