    1259
 i =       93, E =    -44527.4572410311
 Cl        20.7505722214       43.0727554115       20.7579422122
 Cl        26.0000048301       42.6924739733       25.9686694763
 Se        40.1634979188       17.5147822602       26.1652963809
 Cl        42.7205261734       20.5347597380       26.1027533208
 Zn        33.1980448000       21.6370628726       41.4263218982
 Se        20.3485980723       34.4312440834       28.7377132980
 Se        23.1122752680       37.2541160730       28.8119203485
 Se        25.9167492855       40.0460481322       28.7907116608
 Cl        28.6455255102       42.7157829097       28.6353652853
 Se        20.3004804614       31.6928230879       20.2310989949
 Se        34.2633162187       40.4530414748       31.4994251966
 Se        11.6023493542       25.6437985942       17.6175376238
 Se        23.1309305512       31.6720108469       23.0953909686
 Zn        36.1729339618       21.7259871852       15.9848386072
 Se        23.1335164472       34.5237235829       20.2507034235
 Zn        33.2761591016       41.3502148203       21.6350851555
 Se        26.0017207102       17.5581780431       28.8266416845
 Zn        10.5767047989       29.6264182711       16.7172047424
 Se        31.7787310936       14.5903465197       20.3210965695
 Zn        16.4694705170       35.5288587116       16.2210655633
 Se        34.6409645942       17.4647673159       20.3313176231
 Zn        22.3728044057       41.4185235342       16.7159185816
 Se        40.6274931454       30.3700689887       16.4499623849
 Se        23.1974582328       25.9672973852       17.5457849202
 Cl         9.2583248277       28.6204136090       23.3189250225
 Se        11.8126128225       31.5963266400       23.1935307475
 Se        25.9948912901       37.3074973627       20.2682415480
 Se        17.6367635669       14.5971396290       34.7570902539
 Se        20.3301334587       17.4512253481       34.6068545214
 Se        23.1613628757       20.3099079039       34.5228528805
 Se        26.0048217082       23.1958379016       34.4318129481
 Se        28.8567826206       26.0369720098       34.4703568249
 Se        31.6884075071       28.9288972137       34.5227505274
 Se        34.4957192487       31.8505256258       34.4761712356
 Se        28.8464241152       28.8795737493       37.3070316747
 Zn        41.2628422955       28.1939769549       17.0455096187
 Zn        10.4178832577       27.0350371685       19.2188188041
 Zn        13.1463106315       30.2740417168       18.8115339008
 Zn        15.9904044482       33.1146061165       18.7255244479
 Zn        18.8835192519       36.0098277856       18.7264062784
 Zn        21.7245046740       38.8514789735       18.8087445520
 Zn        24.9626247202       41.5875178178       19.2209621167
 Zn        26.8020346599       10.3104965760       15.8027159589
 Se        17.4825341280       20.3108448024       28.9156756769
 Se        37.3594432459       34.8405567675       34.3712432983
 Cl        25.8938511809       42.7194838571       31.4491581053
 Se        11.4104173807       23.4940029754       37.1634535697
 Se        14.5826894964       26.1137367649       37.3807132183
 Se        17.5704819587       28.7904742642       37.0999468405
 Se        20.1990098694       31.7728388711       37.2650449267
 Zn        41.2695532589       16.6262975561       22.2959444805
 Cl        23.4377880274       17.8148517592       42.8146991010
 Cl        26.0923018175       20.5344521415       42.7195146300
 Se        31.6798121761       31.7866219923       37.3946574392
 Zn        24.5433323299       33.1053016838       21.7026544781
 Zn        10.5675312499       24.3895911432       21.7932696375
 Zn        13.3112865680       27.3672991860       21.7185153187
 Zn        16.0585869443       30.2814394503       21.6381356230
 Zn        18.8816008862       33.1147614945       21.6287429062
 Zn        21.7188238195       35.9447134946       21.6372546348
 Zn        24.6250195417       38.6898336353       21.7202209726
 Zn        27.6079704708       41.4354821396       21.7971750234
 Se        20.3238840425       37.4108387426       20.2193697701
 Se        20.3137554764       23.1308869581       28.8611695377
 Zn        36.1919924443       13.4031945032       24.3995630783
 Cl        28.8588245061       23.0479212149       42.6952615772
 Cl        31.3056380551       25.8784362216       42.8340621216
 Cl        34.2362318277       28.3526935852       42.9300639224
 Zn        10.5788138872       33.2001692332       30.2811594168
 Zn        35.1898386011       23.7154992461       41.7597557016
 Zn        33.5266303031       15.8082353903       13.8945354486
 Zn        13.5715449029       16.1525763945       21.6290021972
 Se        20.3158329456       14.6546858512       37.5054137537
 Zn        13.5600315785       35.7759612555       30.2938174421
 Zn        10.6317755834       21.7817318043       24.4610181480
 Zn        13.3988138385       24.5505364893       24.5457813898
 Zn        16.1377049902       27.4402088079       24.5443418650
 Zn        18.8923836803       30.2819763305       24.5294692345
 Zn        21.7145205889       33.1058440553       24.4726667306
 Zn        24.5446223241       35.8623451933       24.5390659305
 Zn        27.4449201298       38.6042046229       24.5373160332
 Zn        30.2802587687       41.3634064966       24.4554010869
 Se        23.2754662077       40.1996151907       20.3284820999
 Se        23.2167107713       17.4793415050       37.4253810610
 Se        26.0650826909       20.3293917337       37.2156982804
 Se        28.8863865866       23.1515670198       37.2306610050
 Se        31.7050035511       26.0252298338       37.3163341583
 Se        34.4703444148       28.9981895078       37.3640211522
 Se        37.3444974722       31.7029501127       37.4185674915
 Se        26.0411924513       14.6805997653       20.3064436928
 Zn        29.7030873635       16.8002264472       10.5793731209
 Se        23.1607069359       34.4587228935       37.1996017662
 Zn        16.2224707048       38.4375632072       30.3026875598
 Zn        10.4929398946       19.2180117559       27.1179100779
 Zn        13.3177888761       21.7913407740       27.3771482902
 Zn        16.1392854598       24.5485149422       27.4315144456
 Zn        18.9537687774       27.3776645835       27.3725122908
 Zn        21.7204261230       30.2188240287       27.3602056352
 Zn        24.5564364771       33.0434097682       27.3679655622
 Zn        27.3754055053       35.8479811913       27.3737931480
 Zn        30.2037205582       38.6129482118       27.2994521171
 Zn        32.8703138013       41.5205280153       27.1245428965
 Zn        39.6753329298       21.3793424420       14.1391278795
 Se        25.8922768555       37.4174711515       37.4287098774
 Se        28.5618281120       40.5027565311       37.2513366179
 Se        23.2293222153       17.5131141432       14.8023215346
 Cl         8.9651162847       20.7445825668       31.2704478990
 Se        34.3317605343       34.8523924637       37.3321613113
 Zn        18.8017555510       41.4260224478       30.2897747514
 Se        23.1934179317       37.1383189202       34.4200719836
 Se        25.8221510435       40.1508111035       34.4589171018
 Se        23.3180653917       20.3535705806       40.0891997868
 Zn        10.6646447846       16.7183213563       29.7154937028
 Zn        13.1588955068       18.9644576171       30.2878904317
 Zn        16.0605425800       21.7150036563       30.3455746586
 Zn        18.8967341425       24.5433299891       30.2836726880
 Zn        21.7885337607       27.3719258698       30.2113780444
 Zn        24.6283447042       30.2733474512       30.2049253264
 Zn        27.4469703967       33.1089879291       30.2701275815
 Zn        30.2191873983       35.9430854923       30.2137851681
 Zn        33.1051310084       38.8410575982       30.2034341697
 Zn        35.3640521985       41.3378731708       29.6355549180
 Cl        26.1474054280       42.8404837042       20.6690826733
 Se        23.0534485894       40.0245913022       31.6850307163
 Se        23.1805307775       25.9706464865       28.8056735339
 Se        11.8245487514       23.2743780311       31.6242519332
 Se        14.6959286274       25.9995524373       31.6535526995
 Se        17.5627500045       28.7976742991       31.5648526049
 Se        20.4045668112       31.5953724043       31.5264532384
 Se        23.1699687803       34.4250492343       31.5873385651
 Zn        16.1398184108       18.9851793137       21.7219932156
 Zn        18.9701549851       21.7930216013       21.8038655965
 Zn        13.8970924576       15.8079026314       33.5219132607
 Zn        15.9888010464       18.8818355399       33.2677234681
 Zn        18.8858047328       21.7134231077       33.1858412676
 Zn        21.7213547828       24.5510052529       33.1043386672
 Zn        24.6228251621       27.4462220076       33.0339878375
 Zn        27.4589781877       30.2935189094       33.1056885657
 Zn        30.2905144162       33.1955219729       33.1143099928
 Zn        33.1088031182       36.0992930427       33.0254427706
 Zn        35.8506880835       39.0077960453       32.6101943583
 Se        23.1735328351       14.7018793073       28.8349596648
 Se        23.4349118126       14.6969095337       40.4623175070
 Se        26.1700739269       17.5145525290       40.1576700673
 Se        28.9384182238       20.2881358877       40.0153983611
 Se        31.6621459844       23.0305581516       40.0806613731
 Se        34.3264151865       25.7042244102       40.4196496311
 Se        37.0977565023       28.5763507573       40.5574925113
 Se        20.3147126083       28.8666720687       23.1084016512
 Zn        15.8935532171       27.2956736674       13.2265341219
 Se        37.2615919655       20.3419072132       26.0220074274
 Zn        21.7823281219       24.6154309921       21.7255415449
 Zn        16.4660082431       16.3995612878       35.7583248039
 Zn        18.9633208812       18.9616387946       36.0062394159
 Zn        21.7849027051       21.7276742054       35.9401033009
 Zn        24.6231177363       24.6221232849       35.8532950665
 Zn        27.4519990169       27.4565293929       35.8648322253
 Zn        30.2819482202       30.3598211552       35.9435733355
 Zn        33.1073804884       33.2849413733       35.9463859530
 Zn        35.5287363922       35.8524300758       35.5277995833
 Zn        18.8904006831       30.2006516354       13.1503993728
 Cl        28.5501393112       42.8373475524       34.1423649483
 Se        14.6074748570       34.5027692181       23.0218644600
 Zn        19.6258901775       10.4828617212       32.4509993056
 Zn        33.1846806022       21.7254154007       13.1520833214
 Se        26.0161878366       28.8314407754       28.8099645495
 Se        25.9592717029       37.2372861175       31.6352124922
 Se        28.6809886373       40.1223089011       31.5787474025
 Cl        38.0219366426       34.9884040892       38.1030833758
 Se        26.0151059447       20.2745672446       14.6915889143
 Se        28.8541862912       23.1293717749       14.6900159741
 Zn        24.5530942260       27.4437988179       21.7206312988
 Zn        19.3983718410       16.4601217518       38.6880548282
 Zn        21.7296436834       18.8888122866       38.8384106856
 Zn        24.7007925610       21.7321436527       38.6059710490
 Zn        27.4522432719       24.5499168472       38.6024114096
 Zn        30.2052849698       27.3802781729       38.6867227766
 Zn        33.0259241424       30.3578035204       38.8457814252
 Zn        36.1143022509       33.6030433287       38.1029947233
 Zn        21.7209202989       33.0334093078       13.1495003368
 Se        31.6946054864       25.9931360147       14.6737167729
 Zn        10.5762039442       21.5637198700       18.8021165950
 Se        28.8047915274       20.3902088424       28.7941066807
 Zn        10.3199317474       16.8005844320       23.7947445908
 Zn        13.3922457096       18.9702442389       24.4572538322
 Zn        24.6289935018       36.0293181776       13.1585985193
 Zn        16.1441075282       21.7227104159       24.6163044489
 Zn        27.3712458757       30.2099035777       21.7829765346
 Se        31.6141383783       23.2116573660       28.8027962377
 Se        14.8008620059       14.7497356261       20.1175753330
 Se        17.6381950574       17.5619011870       20.4137640706
 Zn        30.1932815610       33.0307267908       21.7983260878
 Zn        22.2940616968       16.5572795914       41.2631492284
 Zn        24.8696063581       19.0543745162       41.5174471186
 Zn        27.5341757608       21.7192182246       41.3629226388
 Zn        30.1965110213       24.4012671880       41.4337768585
 Se        31.7454857586       17.4758956017       23.1323990069
 Se        34.5388138339       20.3195522719       23.1469812260
 Se        37.2540708792       23.1912525467       23.1935805414
 Se        40.0442891287       26.0485966739       23.1706701257
 Cl        42.7183340063       28.8188741545       23.0488033057
 Zn        32.7074020125       27.1203153483       41.5855691456
 Zn        35.1981531782       29.7068814586       41.3511823554
 Se        37.1872143167       23.2202274791       34.4681482586
 Se        20.4235659807       20.3967299734       20.4222854794
 Se        23.2233062387       23.1628159930       20.3839184563
 Zn        35.2812872766       10.5735072260       22.3678756586
 Cl        19.8172242620       13.5910979754       41.0616872675
 Cl        28.8206080758       18.2524597856       43.0895926748
 Cl        32.3191206463       19.6387149683       42.0908618831
 Cl        33.6296317452       23.0063877799       43.2743909738
 Cl        36.9365666797       24.9305919389       42.7507961434
 Se        11.8206995716       20.4182024036       28.7690940637
 Cl         9.9525867483       32.3671135782       32.2952464130
 Se        31.5796572370       28.7768958461       40.1832092864
 Se        23.2757409115       11.8223192385       31.6263547218
 Se        40.1686290441       28.7863262494       31.5769651252
 Cl        43.0349656779       31.2703371740       31.2387810054
 Se        20.2972321481       37.3175914524       25.9596748006
 Se        34.4938047849       37.6947193453       34.3582340113
 Se        25.9244189376       23.1427546808       11.9423555286
 Cl        32.3595557396        9.9243786868       32.3638789849
 Se        34.5398552868       34.6361273161       31.6407138926
 Se        14.7750584015       37.2123861475       31.7894582298
 Zn        13.3157586783       24.4457457897       18.9747275207
 Zn        16.0542864827       27.4553481335       18.8203989318
 Zn        18.8772389250       30.2840664689       18.8068746681
 Se        23.1826882249       40.0831684947       26.0214770592
 Cl         8.7351872920       22.9417961415       18.3856777399
 Zn        36.2829137512       10.3937745793       25.3681655000
 Zn        30.3677773626       38.5331052402       21.6404732236
 Se        37.3586397851       37.4293463580       31.5831261310
 Cl        19.6804490645       42.0672094741       32.3059976072
 Cl        42.7024851501       25.9541803152       25.9629166343
 Zn        21.7304700814       13.1580604190       33.1197457714
 Zn        21.6303622826       18.8025415933       10.5743546749
 Zn        24.3937153485       21.7988705954       10.5660080602
 Zn        27.3047107545       24.6298851129       10.6334260647
 Zn        30.1962540160       27.5450039689       10.5663046041
 Zn        33.1939269432       30.3653609939       10.5758938121
 Se        40.3769197607       25.7196856463       34.3533440678
 Zn        33.1885559599       13.1475355641       21.7215462803
 Zn        18.9587011887       24.6023150813       24.5508484636
 Se        26.0613063206       23.1636154292       40.0405536883
 Se        34.4702299569       26.0346485521       28.8569973037
 Se        26.0108696021       25.9822108014       20.3613422498
 Se        28.8006140376       28.7873653525       20.3890085473
 Se        31.5692109631       31.5670220704       20.4271420252
 Se        34.3664344186       34.3571946009       20.3973053839
 Se        37.2105239654       37.1023368723       20.0359439609
 Se        11.6653161767       26.3165375201       34.3775645623
 Zn        32.9424277720       35.8553586912       21.7170689012
 Zn        21.7202725467       27.4475966219       24.5394224088
 Zn        24.5445654939       16.0535032978       33.1157310317
 Zn        21.6259340264       16.2227287912       13.5644665109
 Zn        24.4576853923       18.9684000625       13.3188729504
 Zn        27.3783064402       21.7323948771       13.3129599671
 Zn        30.2105919857       24.6212848221       13.3105817167
 Zn        33.0248798468       27.5474572762       13.3154242365
 Zn        35.7601440678       30.3703809150       13.5562219619
 Se        14.8086146493       28.8127599911       34.3718708519
 Zn        36.1821504308       16.0531383791       21.7117393403
 Se        11.5450837888       20.3910274711       34.3780965310
 Se        14.5982446247       23.1331912038       34.5389727236
 Se        17.5176659048       25.9372082771       34.4561061031
 Se        26.0106682852       14.6863281826       31.6709337602
 Zn        24.5480965446       30.2778401786       24.5436645193
 Se        20.3750276510       28.8081535175       34.3632056234
 Se        23.1991071091       31.6398392199       34.4033266955
 Se        26.0418698675       34.5036431453       34.4786189765
 Zn        27.3778777503       33.0394845515       24.5556943308
 Se        34.3072303935       31.6643627563       40.4817183908
 Zn        27.3741011477       18.8966758587       33.0384273580
 Zn        21.6330323737       13.5575339814       16.2234808829
 Zn        24.7921860117       16.0592378495       16.0574843487
 Zn        27.5300974310       18.8860020958       16.0593344812
 Zn        30.3458800609       21.7126471547       16.0528283743
 Zn        33.1211844706       24.5397557065       16.0506787119
 Zn        35.8707891058       27.2205594960       16.0558466981
 Zn        38.2865698300       30.3727496784       16.2304200110
 Se        17.6165235782       31.6036493140       34.3065505674
 Se        14.6935212362       31.7931635115       31.7095724554
 Zn        30.2039567152       35.8481257690       24.5485464124
 Zn        33.0904252610       38.6166216102       24.5350572875
 Zn        35.0296829736       41.2624748507       23.8007408501
 Se        28.7748787903       37.4674358875       34.4738633175
 Zn        32.4558529460       19.6303851304       10.4157088766
 Cl         9.3172747911       25.9769365055       25.9784031160
 Zn        15.7266901662       10.3916544685       26.7119400996
 Cl         9.1878044917       24.8676120129       15.1084209038
 Se        11.3949433007       28.4946807110       14.8281881502
 Se        28.8676329230       31.7504793905       34.5224001725
 Zn        21.7090792008       10.5687323069       18.7963920026
 Zn        24.4771530605       13.3247085040       18.9745318096
 Zn        27.5288134491       16.0549548861       18.8901495873
 Zn        30.3692594232       18.8847881327       18.8822733024
 Zn        33.1919153443       21.7112550241       18.8264205147
 Zn        35.9423957252       24.5426541696       18.8858325264
 Zn        38.6135954713       27.4553175926       18.9621959798
 Zn        41.3517873608       30.3624949255       18.7890169799
 Zn        30.2018324969       21.8054362469       33.0288228253
 Se        14.6355978749       31.6452101320       14.4026708552
 Se        17.6002472913       34.3893125384       14.3924558353
 Zn        35.3618698933       22.2999079512       10.6526494087
 Zn        36.1945571417       25.2809267306       10.2386177664
 Zn        36.2798909771       26.6371085245       41.5138801354
 Cl        28.6741437436        9.2406478657       23.3416057102
 Se        31.5899050876       40.4625350057       34.2347379407
 Zn        30.3440635950       18.9606609588       13.1515971059
 Se        37.2986227376       28.8645618709       28.8519187393
 Se        11.4930000876       14.8379083412       28.5899771141
 Zn        10.3126718785       36.1967031452       25.1944556157
 Zn        24.4784347289       10.5620235028       21.8014498115
 Zn        27.4395753117       13.3168281925       21.7882255006
 Zn        30.3629735418       16.0571014130       21.7168737702
 Zn        33.1892365131       18.8814627872       21.7101190002
 Zn        35.9376534663       21.7267711777       21.7227895066
 Zn        38.6137368086       24.6317159351       21.7900015394
 Zn        41.3648311110       27.5253821067       21.7183806209
 Se        28.8032547040       17.5489808182       31.6053035220
 Zn        15.8091960866       41.7583598409       25.1925894091
 Se        28.8945077123       14.6991029267       23.1597131897
 Zn        21.7145851415       33.1162232949       18.8066826144
 Zn        35.7789663912       38.2779018748       21.5467954146
 Se        14.6927836382       23.4408019093       40.4606311026
 Se        17.5274614564       26.1689934273       40.1381453003
 Se        20.2879339193       28.9424234541       40.0135178145
 Se        23.0150109837       31.6573081560       40.0768676147
 Zn        24.5406235809       35.9416142524       18.8134826396
 Zn        27.5478836251       38.6813646175       18.9685240492
 Se        14.6375804460       17.5046174238       28.9544178409
 Se        21.6530333667       11.2243265633       16.4647258043
 Zn        27.3694160964       10.6310675254       24.6378273423
 Zn        30.2798952363       13.3097534556       24.6251572738
 Zn        33.1802130214       16.0548017143       24.5361845845
 Zn        35.9466540648       18.8892722729       24.5436202576
 Zn        38.6150156345       21.7897724939       24.6324316909
 Zn        41.3638120064       24.6377107668       24.6382025090
 Zn        32.4618811388       10.4167310563       19.6316824739
 Se        31.6551655689       37.2452809492       25.9476182695
 Zn        30.3709979936       41.4258377217       18.8013123685
 Zn        10.3119850732       25.2896683120       36.1935154922
 Zn        21.6196633742       33.1913075981       41.4181556122
 Se        25.6412463206       34.3927993247       40.3649294937
 Se        28.4616305408       37.1596797917       40.6230697094
 Se        28.8122194026       31.6101039933       17.5625909517
 Zn        33.1016655367       24.6339606997       33.1006898072
 Se        20.3767364073       20.3678452880       37.4050856028
 Se        14.6934962904       28.4852498598       11.5176449335
 Se        17.7119008691       31.5197681160       11.5190737937
 Se        20.3891301432       34.3859986869       34.3709476874
 Zn        36.1820808354       24.4765581020       13.3916972752
 Zn        30.2004136305       10.5614909189       27.5393880263
 Zn        33.0260552408       13.3164429108       27.5454941114
 Zn        35.9385381090       15.9916745419       27.2285521856
 Zn        38.6145190910       18.9032977528       27.4593073842
 Zn        41.3610563920       21.7227703041       27.5348204526
 Cl        25.9432723494        9.1970502393       20.6315456124
 Se        34.4703673695       40.1827358073       25.8298015513
 Se        20.4152007327       34.2324216362       11.5221410039
 Se        23.4290338332       37.2338077116       11.4613517446
 Se        11.9292261843       28.8155112802       26.0094336904
 Se        17.5393277877       28.8323500452       25.9593798950
 Se        14.6013391131       20.3504464226       37.4791479063
 Se        17.4821926001       23.2151157927       37.4247999349
 Se        20.3695959499       26.0279310050       37.2226160908
 Se        23.1505531645       28.8851480228       37.2257006862
 Se        25.9969063620       31.7283667777       37.3048811528
 Cl         9.2288223375       20.6254396240       25.9079352476
 Se        11.9409064411       23.1904846639       25.9529611168
 Se        31.6681880229       11.8016527438       23.2718551040
 Se        14.6342127819       17.5912019013       34.7985194134
 Zn        33.2002649495       10.5678882085       30.3608656260
 Zn        35.6999314011       13.5596999262       30.3834837884
 Zn        38.2875864014       16.2269384522       30.4436526040
 Zn        41.3505061388       18.7927364388       30.3644114661
 Zn        38.7518747614       16.4665903479       19.3871695500
 Cl        37.6689164777       40.6674401475       32.5914891162
 Se        28.8924184960       34.6040430863       37.3790479997
 Se        31.6729878480       37.5761074902       37.3144718969
 Se        28.8076146417       26.0434538843       11.9242177139
 Se        31.6495009193       28.9580716254       11.9057141281
 Zn        23.6465804996       35.1979013079       41.7579636045
 Se        20.3487303092       37.3346691061       14.4295831171
 Zn        35.9397871544       27.5300030485       33.1075683165
 Se        11.2313405797       21.5026991916       16.4755932035
 Se        14.5146003848       25.8615147138       14.5816823930
 Se        17.4684523120       28.7411267252       14.5526757666
 Se        20.3505057294       31.5829519270       14.5841139941
 Se        23.2108721868       34.4642118364       14.5292590184
 Cl        19.5892245946       32.3121430623       42.0164757854
 Cl        15.1134245372        9.1903021699       24.9621899853
 Zn        15.8996365056       13.3989487401       27.6088181422
 Zn        18.8938871430       16.0563802344       27.4629143330
 Zn        21.7153194048       18.8911565650       27.4576330535
 Se        28.8026430021       11.8129335779       20.4008438426
 Cl        22.9649272101       33.6097620661       43.2656440443
 Se        26.0728832686       37.3891793914       14.5469295528
 Se        30.4390595901       40.7693216683       16.4722538623
 Se        11.5523633080       17.6704919897       31.6338291550
 Se        23.4953171881       40.5898247325       14.8226492531
 Zn        38.8315768399       30.3553367506       33.0312476955
 Zn        26.6358032360       36.2043032069       41.6878797608
 Cl         9.0315934612       28.1793039809       17.6369307708
 Se        17.5352722247       14.7924491016       23.2208256199
 Se        20.3708286614       17.5310862801       23.2059489064
 Cl         8.7534583760       33.6088217489       28.8791355703
 Se        34.4357485017       28.8030286663       14.8037363733
 Cl         9.2256955419       15.1121514021       25.0033971420
 Se        20.3318614150       31.6739352519       25.9185993158
 Se        17.6819120756       20.4097576512       40.4201446402
 Cl        24.8744466952       36.8491266767       42.8642660313
 Zn        38.7765292722       15.8945995945       24.6284170990
 Zn        41.5167893562       19.0623384344       24.8690177746
 Se        26.0104143048       26.0128094969       31.6318540709
 Zn        41.5164810051       32.4541539952       32.3656763885
 Se        11.4621142045       31.5655179212       17.6028502420
 Se        14.7925582008       23.1568175055       17.5699246465
 Se        17.4856667731       26.0350239836       17.4807642594
 Se        20.3152908837       28.8182927728       17.4740480451
 Se        23.1368267598       31.6593554359       17.4510520599
 Se        25.9489162492       34.4757723694       17.4941418900
 Se        28.8053791591       37.1949630075       17.5472081873
 Cl         8.8122304387       18.3508776400       23.0699304641
 Se        31.5936794337       17.6316631293       34.3583676643
 Se        20.3914853269       23.2854887921       40.1093233479
 Se        23.1699417972       26.0543848837       40.0391380285
 Se        25.9271139896       28.8376408321       40.0600148407
 Se        37.1740107904       31.8874536636       14.7571405016
 Zn        10.4694452005       15.7189592920       26.7173595425
 Zn        13.4640327655       15.8943748901       27.6128745264
 Zn        16.0661616230       18.8932069652       27.5250673214
 Zn        18.8929691821       21.7151822491       27.4539784595
 Zn        21.7239301841       24.5471981631       27.4455940057
 Se        28.7303080512       31.6642498797       40.1809405301
 Se        31.5652693939       34.3950220319       40.5390375245
 Se        26.0359503067       14.5892534868       14.5785957281
 Se        34.5902451368       14.6229978073       23.0905856942
 Cl         8.7339792833       28.9798825136       33.5566488443
 Se        28.9664440998       17.5009577230       14.6078618681
 Se        20.3729024845       28.7737145487       28.7704467200
 Se        11.2527785358       16.3853851316       21.6416262562
 Se        14.7097609761       20.1830451015       20.2240414405
 Se        17.5725377019       23.1784434451       20.3575125159
 Se        20.3206812405       26.0099296098       20.3277667032
 Se        23.1389388894       28.8316595850       20.2879226537
 Se        25.9640904351       31.6437278988       20.3374114541
 Se        23.1810721925       31.6085043298       28.7537335670
 Cl        24.9128871112       15.0915499614        9.1884461753
 Cl        28.3203840886       17.7646571355        9.0264201384
 Cl        31.2681626044       20.7813239084        8.9297422111
 Cl        34.4228291493       23.8075066858        9.0929723632
 Cl        36.8212507302       27.0621725773        9.0860154557